 -1.6515067e-01   3.5836913e-02
  1.3015184e-03   5.4547917e-03
 -6.2659550e-03   1.8249475e-03
 -2.4555147e-01   6.7359214e-03
  1.7318255e-01   1.6649261e-02
  1.9424976e-01   3.6900952e-03
 -2.0479736e-01   2.3521120e-03
  1.6292827e-01   3.4894630e-02
 -2.1186219e-01   2.1689858e-02
  1.1479315e-01   1.9378580e-02
 -5.3819351e-02   2.3542587e-02
 -8.6317830e-02   1.5916979e-02
  1.2508708e-02   2.0020794e-02
  4.0690217e-02   1.4151732e-02
  8.2829155e-02   3.4392696e-02
 -2.5149482e-01   5.8908019e-02
  2.6198080e-01   1.7908841e-02
  2.7513024e-01   4.8299227e-02
  8.1086613e-02   2.0913446e-02
  6.1561354e-03   2.8717678e-02
  3.4269758e-02   3.0447552e-02
  1.3043711e-01   3.3437198e-03
  1.6076024e-01   3.0365833e-03
  2.2037187e+00   9.0317139e-03
  7.6851062e-02   5.7193199e-03
 -3.4299931e-01   1.0721850e-02
  6.1119303e-02   2.9513238e-02
  2.6802534e-01   1.6954655e-02
  1.7564969e-01   1.1402883e-02
 -3.2391483e-03   5.1028859e-03
  1.1094527e-02   4.8130001e-03
  1.3807897e-01   3.8334034e-02
  1.9136924e-02   6.4706295e-03
  4.9182769e-02   2.4034047e-02
  5.9372365e-01   9.5701485e-04
  1.5175599e-01   4.3676072e-03
 -4.9027380e-02   1.0670584e-02
 -5.6438882e-02   1.5790258e-02
 -2.1286184e-01   1.8476795e-02
 -6.1442829e-03   1.1821815e-02
 -1.1081795e-01   1.2983643e-03
 -2.4695967e-01   8.4859049e-03
 -1.6710784e-01   2.1255929e-02
  4.4559859e-02   1.4821183e-02
  3.9943818e-02   5.6382283e-03
  1.4184833e+00   1.0297048e-03
 -2.6288798e-01   4.1628685e-03
 -1.7828194e+00   3.7889738e-04
 -3.5884261e-01   4.0345457e-03
 -3.0437350e+00   1.0063087e-03
 -7.8920704e-01   1.0793356e-03
  1.4985737e+00   1.1325359e-03
  3.2165959e+00   2.6670403e-03
  7.9975881e-02   9.9066338e-03
 -4.5274734e-01   2.6235969e-03
 -3.9323097e-01   1.5603011e-02
  5.4509979e-01   2.4079775e-02
  7.0343393e-01   2.2609408e-03
 -3.1043702e-01   6.3299499e-03
  1.0990905e-01   2.2825624e-03
 -1.3427672e+00   8.0874972e-03
 -4.1808505e-03   7.1889451e-03
 -3.4418866e-01   4.8152395e-03
 -5.8034018e-02   9.3001658e-03
 -6.8816602e-01   3.9868550e-03
 -4.0626609e-01   5.3672865e-03
 -1.2556385e-01   1.5889382e-02
  2.2152829e+00   4.3980652e-03
  5.4233015e-01   7.3858863e-03
 -7.4185923e-02   3.8131382e-03
 -2.3653543e-01   3.0155638e-03
  8.7000698e-02   3.9274325e-03
  2.6286596e-01   2.6947695e-03
  9.1526359e-01   5.8573540e-03
  1.0883406e-01   8.7698875e-03
  3.4063464e-01   7.3497607e-03
 -1.2947032e-02   1.1584759e-02
 -3.0893724e+00   3.7920161e-03
  2.7593918e+00   3.8190786e-04
  6.4893095e-03   9.0202130e-03
 -3.9077677e-02   1.1082126e-02
 -6.6139095e-02   1.2764509e-02
 -1.0625628e-01   2.1789379e-02
 -1.6082604e-01   9.5967725e-03
  4.9756426e-02   3.0956447e-02
  5.3553946e-02   7.4717705e-03
 -2.0129558e-01   9.0820370e-03
  3.2934338e-01   2.5752721e-02
  6.3687347e-02   2.2793157e-02
 -2.8182328e-02   5.6187646e-03
  1.2686612e-01   1.9975053e-03
  1.4869671e-02   2.2821469e-02
  8.6506024e-02   1.3957862e-02
 -1.3276102e-01   7.8498190e-03
  1.3920943e+00   4.0791940e-04
  6.3453175e-02   1.4409306e-02
  5.3438328e-02   6.1643668e-03
 -2.4036817e-01   1.8356482e-02
 -2.2442520e-01   1.2968214e-02
 -1.3167191e-01   2.5639941e-03
 -2.3570395e-01   6.4606010e-03
 -9.6064374e-02   2.5381237e-02
 -1.9004698e-01   2.3562803e-03
  6.9034792e-02   1.0564039e-02
 -2.6938683e-01   2.3395654e-02
  2.2464700e-02   1.2531351e-02
 -3.9219990e-01   8.3244443e-03
 -2.2049531e-01   1.2792307e-02
 -1.1078878e-01   9.0571539e-03
  1.3934235e-01   1.5107899e-02
  4.0838829e-01   2.6129013e-02
  2.7537543e-01   1.0488261e-02
 -7.5135507e-02   2.7498731e-02
 -4.1859791e-01   3.3440241e-03
  1.2018993e+00   3.3580809e-04
 -3.6537343e-01   8.0894288e-03
 -6.3972346e-02   1.9623023e-02
  4.0273860e-02   7.7116885e-03
 -2.6702467e-01   2.4522666e-03
  9.0788551e-02   1.0175038e-02
 -1.4185107e-02   1.2753732e-02
 -2.0815535e-01   6.9810185e-03
  9.9550962e-02   4.6400882e-02
 -9.6857408e-04   3.6212701e-02
  9.2442624e-02   3.4790244e-02
 -1.4441617e-01   3.9238244e-02
  1.9775315e-01   1.2431178e-02
  8.3827361e-02   4.8412951e-03
 -1.9221570e-02   3.7753753e-02
  6.9399625e-02   2.0732475e-02
  6.7580440e-03   3.4340259e-02
 -9.3821503e-02   1.0177917e-02
 -7.7495888e-02   1.9213840e-03
  7.9402499e-02   3.1948678e-02
 -1.5452223e-01   2.9838556e-02
 -3.4054396e-01   6.5400666e-03
  2.8501794e-02   3.0175481e-02
  2.5519377e-02   5.3270985e-03
 -1.9337296e-02   9.1393115e-03
 -1.2953977e-01   1.8901255e-02
 -1.7299775e-02   4.1773308e-02
 -4.3058813e-01   1.1587296e-02
 -1.3077685e+00   1.8365131e-03
  2.2724699e-03   5.6249825e-03
 -2.8661938e-02   6.0135562e-02
 -1.4641778e-01   5.4576127e-03
 -1.0134283e-01   4.2322492e-03
  1.0590308e-01   2.4295852e-02
  5.2036956e-02   2.3150830e-02
  1.0715823e-01   4.7398411e-02
  5.9151217e-02   1.5171857e-02
  9.9551659e-03   4.5877504e-03
 -2.0703898e-01   6.9336351e-03
 -4.7809437e-02   1.1390397e-02
  2.4986988e-01   1.1252030e-02
  1.1870618e+00   5.0724312e-03
 -4.7943942e-02   4.5900624e-02
  5.8955066e-02   1.8276997e-02
 -1.9111313e-01   1.7735103e-02
 -2.5809070e-01   1.1961812e-03
 -1.0327526e+00   2.5702906e-03
 -1.9801085e-01   2.9847135e-03
  6.4497799e-02   1.7344479e-02
 -7.2120219e-02   1.8910682e-02
 -1.7832622e-01   3.5057813e-02
 -2.0566295e-01   5.7869367e-03
 -1.6680340e-01   8.6870873e-03
 -2.4506624e-01   3.3962633e-02
  2.1955630e-01   7.3665767e-03
  8.4728807e-02   3.2552027e-03
 -2.1736209e-01   1.5688570e-02
  2.3982902e-01   1.5932353e-02
 -1.3698283e-01   2.1770172e-02
 -2.0468338e-01   4.7856536e-02
 -2.0515032e-01   3.7065044e-02
 -2.2843330e-01   9.5975399e-03
  8.9627033e-01   5.2508321e-03
 -1.7662359e-02   2.2675393e-03
 -2.0299917e-02   4.3911982e-02
  1.2366955e-01   1.0404565e-03
 -2.8612545e-01   6.5499311e-03
  2.2072847e-01   9.0407429e-04
  2.9245573e-01   5.2144873e-04
  2.0620637e-02   6.4870310e-03
 -2.4422463e-03   2.4020609e-02
 -4.6840586e-02   2.9960742e-02
 -6.8944559e-02   4.3316472e-02
 -3.5186972e-02   3.9524999e-03
  1.3249752e-01   1.1471240e-02
  1.1404122e-01   3.3829611e-02
 -1.5490672e-01   9.9878749e-03
  1.0439364e-02   1.9510193e-02
 -2.5939894e-01   4.3022107e-02
 -4.3352570e-02   6.3037761e-03
 -2.6767343e-01   1.6653089e-02
 -2.0740516e-01   9.0231653e-03
  2.0924339e-01   1.8024080e-02
  2.6026365e-01   4.7364533e-02
  9.8987766e-02   4.3677546e-02
 -1.3011259e-01   1.6544709e-03
  1.5453926e-01   7.1342676e-03
  2.5223648e-02   2.2199241e-02
  1.3230644e-01   2.4098955e-02
 -8.9523844e-02   2.3321051e-02
 -3.2144576e-02   2.1057328e-02
  1.3873127e-01   4.6002187e-02
 -4.3785051e-02   4.0133622e-02
  8.3784364e-02   3.8044892e-02
  3.2380711e-02   1.0250840e-02
  4.4268273e-02   8.0928076e-03
 -2.5399992e-01   1.9033502e-03
 -3.2279873e+00   1.4302997e-03
  3.6516207e-01   3.4152556e-02
  2.1557269e-01   1.7430687e-03
  9.6910052e-02   1.0170729e-02
 -1.6808426e-02   1.8612143e-02
 -2.2242961e-02   1.8117968e-02
 -4.2521050e-03   5.7397326e-03
  3.4735028e-02   1.0856458e-02
  7.4105568e-02   5.9481757e-03
  4.6737111e-01   2.7891437e-03
  3.0673792e+00   2.6072620e-03
  3.7779063e-02   1.4062238e-02
 -6.3393223e-01   3.0063037e-03
  2.0649375e-01   5.0516566e-03
 -1.0221462e+00   4.1670813e-03
  2.8907530e+00   2.5219165e-03
 -1.7782074e-01   9.1456501e-03
  2.4969870e-01   3.6028053e-03
  1.3254896e-01   3.6990054e-02
  4.3756285e-01   2.4459839e-02
 -4.2952207e-01   2.9701551e-02
  1.0670414e-02   1.5674397e-02
  6.3423222e-01   2.7151513e-03
 -3.1475943e-02   2.1332135e-02
 -1.6859503e-01   1.5185030e-02
  8.6109906e-02   3.0884618e-02
  1.8627690e-01   1.2311945e-02
 -2.4976432e-01   9.7777406e-03
  1.7109245e-02   3.5915993e-02
  1.5911415e-02   4.4612768e-03
 -1.0820736e-01   3.2436691e-02
 -2.2972302e-01   1.2351788e-02
 -3.1404626e-02   6.5088896e-03
 -9.8154061e-02   2.9710218e-02
 -7.3101446e-02   2.2054302e-02
  4.4614230e-03   9.1900267e-03
  6.4392859e-01   6.5046186e-03
  6.6718213e-02   3.6522376e-03
 -3.6428952e-01   2.7054055e-02
 -1.6249871e-01   1.6632855e-02
  6.0379479e-02   2.5016379e-02
  3.3728704e-01   1.6337624e-02
 -3.2184869e-01   3.0953661e-02
  1.3645540e-01   2.3090336e-03
  2.4409027e-01   1.0854972e-02
  2.8917324e-03   1.1585400e-02
 -5.3809799e-02   1.6986102e-02
 -3.0754226e-01   3.3891793e-02
 -2.9330133e-02   2.3888640e-02
  3.1894386e-01   1.5246587e-02
 -7.6595291e-02   8.4924651e-03
  1.0936752e-01   1.5826752e-02
  1.5670387e+00   2.2632852e-03
  2.6733965e-01   6.1211237e-03
  6.8554497e-01   5.3327414e-04
 -8.9176279e-01   8.9795532e-04
  2.0594294e-01   1.3598040e-03
  7.6826322e-01   5.2581816e-03
 -8.0135947e-01   1.4693645e-03
  2.9945412e-01   2.6687542e-03
 -3.8561139e-02   1.0333263e-02
  8.4506166e-01   4.1413284e-03
 -7.1007013e-02   1.8859046e-02
  7.7939612e-01   4.5826137e-03
  1.8548395e-02   5.9502372e-03
 -2.9679698e-01   4.5029729e-04
 -3.3917201e-01   4.5714737e-03
 -5.5114357e-03   2.5832931e-02
 -1.3831934e-01   1.7623344e-02
 -5.6671184e-01   1.1926377e-02
  3.9879903e-01   4.1428450e-03
  2.2129773e-01   6.1417813e-03
 -9.9953271e-02   1.3483683e-02
 -7.0647530e-02   5.4443958e-03
  9.3481469e-01   5.4612830e-03
  2.4873011e-01   1.1337275e-02
  2.8851256e+00   4.2504063e-03
 -1.3088931e-02   5.5459174e-03
  2.5733274e-01   1.0066848e-02
  1.3237928e-01   7.1092146e-03
  5.9361394e-02   4.4181701e-03
  6.6385812e-01   5.3150021e-03
 -1.0883934e-02   1.9433754e-02
 -2.2566646e-01   1.7389795e-02
  5.8447409e-01   1.0058790e-02
  5.5870507e-02   2.5286789e-03
  5.0316893e-02   9.5784515e-03
 -7.6120391e-02   2.2193373e-03
  3.2096956e-02   4.0713758e-03
 -1.7494898e-01   1.8529618e-02
  2.1316423e-01   5.2316068e-03
  1.0728160e-01   2.4218285e-02
 -7.6313533e-02   1.6235221e-02
 -3.0927556e-02   2.1479504e-02
 -1.3484722e-01   1.7053520e-02
 -2.4646798e-01   3.9101401e-03
  6.5294489e-02   2.1284265e-02
  1.3454331e+00   7.2254502e-04
 -1.7366175e-02   3.7563354e-04
  1.4502238e-01   1.7362336e-03
  5.5546552e-01   1.6694792e-04
  8.0452156e-01   7.2685245e-04
  1.0584027e+00   2.2747225e-04
  1.9576573e+00   4.3825395e-04
  2.4618180e+00   1.6890238e-03
 -7.6114279e-01   1.4757335e-03
 -3.2244155e-01   1.0131275e-03
  8.2615048e-01   5.1450850e-03
 -4.6692553e-01   7.4009475e-04
  8.5544698e-02   3.9234092e-03
 -7.2185500e-03   3.3118541e-03
 -8.1573266e-01   4.9757273e-03
 -3.2219693e-02   2.9588591e-03
 -1.0917732e+00   2.5569843e-03
 -3.0952672e-02   1.8783697e-03
  2.6362281e+00   5.9396052e-04
 -4.3342525e-01   3.1861069e-03
  1.3397272e+00   2.6071810e-03
  5.3750247e-01   7.4683432e-03
 -8.1099683e-01   1.8653719e-03
  1.2387838e+00   6.4977868e-03
  8.2280391e-01   4.5498819e-03
  4.6573812e-01   9.5907378e-04
 -2.7241525e-01   5.7615354e-03
 -1.9515164e-01   1.8369217e-03
  1.0606214e+00   1.8188263e-03
  8.8451989e-02   1.3961834e-03
 -3.1611681e-01   4.5505943e-04
  1.4231638e+00   3.5891337e-03
 -2.7636092e-02   1.2144529e-03
 -2.1829519e-01   5.3694402e-03
 -6.7262405e-01   1.6541496e-03
 -6.9029677e-01   2.3501732e-03
  3.6697391e-02   7.3569692e-03
 -2.0206461e+00   4.4671032e-03
 -1.4148121e-01   1.1998769e-02
 -5.8729164e-02   6.0121678e-03
 -6.3276298e-02   1.4744347e-02
 -5.5851561e-01   4.1339889e-02
  4.8813608e-02   1.9225648e-02
 -3.0109495e-01   4.3799984e-04
  7.3082708e-02   5.8035256e-04
  3.0781600e-01   7.4660929e-04
 -3.4169143e-01   6.9130063e-03
  3.9469874e-01   1.1550393e-03
  1.6248553e-01   5.9878188e-03
 -2.0628502e+00   1.1617140e-03
  3.0332739e-03   3.9349520e-03
  9.3199119e-02   6.2196678e-04
 -7.3159125e-04   5.7681948e-03
 -2.4313133e-02   1.9269371e-02
 -2.4204579e-01   8.4147472e-03
 -4.1350836e-01   2.3235469e-03
 -5.5607921e-03   1.4337158e-02
 -2.2155808e-02   9.0033450e-04
  1.2127716e-01   5.5360980e-03
 -1.4123315e-01   1.5911659e-02
 -1.1094680e-01   7.2105601e-03
 -3.1345425e+00   1.4618767e-03
 -4.0322069e-02   8.4466478e-03
  1.2330309e-01   1.4973440e-02
 -1.8578735e-01   2.0152926e-03
 -1.6805112e-02   7.3283236e-03
  4.1889316e-01   1.4025356e-02
  4.2900033e-02   2.7117869e-03
  1.4806777e-01   3.4577101e-03
  8.3030008e-02   7.5416476e-03
  7.7475339e-02   5.5729882e-03
 -3.2791507e-01   3.1660234e-03
  9.3168545e-01   1.4917307e-03
  4.8249671e-01   1.1136987e-02
 -2.1781629e-01   9.3201296e-03
 -4.2921194e-01   5.9454222e-03
  1.2983692e-01   2.6112793e-02
  1.2998141e-01   2.0335279e-02
  2.0652048e-01   8.7722205e-03
  1.1858508e-01   2.9768595e-03
 -1.6894657e-02   7.6690679e-03
  2.7691640e-02   1.1711616e-02
 -8.3499290e-03   1.0848674e-02
  1.0008870e-02   2.4827367e-02
  2.1120277e-01   2.3445236e-02
  1.0344665e-01   1.5758857e-02
  4.0414691e-01   2.2478816e-03
 -5.6217846e-02   2.3910459e-02
  1.9434743e-01   9.9524669e-03
  1.3446351e+00   1.4670985e-03
 -3.3464247e-01   8.1025111e-03
  4.2675790e-01   9.5349201e-04
 -2.2605768e-01   9.6428208e-03
  2.2750393e-01   1.8662781e-03
  5.0635427e-01   8.2469089e-03
 -4.6408349e-01   3.1914061e-03
 -3.8016459e-01   2.0017240e-03
  5.9434492e-02   6.3160057e-03
  2.5954237e-02   3.3292479e-03
 -5.6279894e-02   5.7392996e-03
 -4.7213829e-01   3.1118372e-03
  2.7826130e-01   3.6408985e-03
 -2.2205103e-02   1.5852503e-02
  3.9449391e-01   5.4795627e-04
 -2.2818911e-01   1.6513173e-02
  5.2703941e-01   1.1836846e-02
 -4.4564644e-01   1.0217547e-02
 -1.0844933e+00   4.7142836e-03
 -2.4893066e-02   1.3705982e-02
 -2.1546824e-01   3.7105668e-02
  1.3838392e-01   1.9948380e-02
  5.6239687e-02   9.1071716e-03
 -3.9109252e-02   1.0424779e-02
  1.9394727e-01   2.5567599e-03
 -1.9933015e-02   9.4248103e-03
 -1.6937710e-01   1.7265426e-02
  8.1852126e-01   6.9753113e-03
  1.9725357e-01   5.7297675e-03
  1.1877660e-01   1.6133437e-02
  9.8612234e-02   1.3804096e-02
  1.6509509e-02   1.1298331e-02
 -4.1342723e-01   3.1824736e-03
  2.5067100e-01   1.6347919e-02
  2.3335029e-01   2.4890002e-02
  6.0199946e-02   1.8278128e-02
  3.3024174e-01   1.7705446e-02
  4.0568490e-02   2.3302654e-02
 -2.0833164e-02   6.1797369e-03
  4.4496116e-01   3.9504846e-03
 -1.7012122e-01   1.4835993e-02
 -3.9498165e-02   2.0672865e-03
 -2.7504453e-01   2.2295812e-02
 -1.2068965e-01   3.8005908e-03
  5.9121978e-02   4.3217689e-04
 -5.1374763e-01   7.5102290e-03
  3.9167073e-01   1.1511912e-03
 -2.8267136e-01   2.7562564e-03
 -6.3118979e-02   7.3717991e-03
  7.8896180e-02   1.1599888e-02
  5.9583555e-03   2.2297462e-03
 -2.0091495e-01   2.6274708e-03
 -7.4377982e-04   3.2195687e-02
 -4.0821472e-01   9.2973877e-03
 -2.4064736e-01   2.2479245e-03
 -9.3572643e-03   1.5803711e-02
  1.8605456e-01   3.5866615e-03
 -1.1867718e-01   1.0616979e-02
 -2.8643323e-02   1.0689679e-02
 -1.1592671e-01   6.0277679e-03
  5.4679554e-02   1.8704703e-02
  9.6221626e-02   5.3768517e-03
  6.9283232e-02   9.6258344e-03
 -3.1853404e-02   1.8234022e-02
 -1.0275195e+00   1.0924034e-02
 -4.0272858e-02   2.2735262e-02
  7.4997328e-02   1.1628708e-02
  2.2042088e-01   6.9467532e-03
 -2.4075644e-01   5.1404908e-03
  1.2937199e-01   9.1851689e-03
  9.9081255e-02   1.8641315e-03
 -3.5394631e-02   5.3137369e-03
  1.6111457e-01   1.5916582e-02
 -3.7128225e-02   6.1898427e-03
 -3.6864374e-02   9.1206823e-03
  1.0774677e-01   3.1580518e-03
  1.5811929e-01   5.6464071e-03
 -1.0328876e-02   6.3687675e-03
  3.4293994e-02   8.6983806e-03
 -3.6700699e-01   3.0163854e-02
  3.7843770e-01   8.2667153e-03
 -1.2162445e-01   1.2259547e-02
 -2.1548988e-01   9.1990586e-03
  7.8220367e-02   3.4086727e-02
 -5.1788948e-02   2.4879552e-02
  1.5928943e-01   3.2090176e-02
 -1.4886581e+00   2.0224927e-03
  7.9627916e-02   5.7101827e-03
  1.2559893e+00   1.9934475e-03
  2.8470330e-02   4.5509492e-03
 -9.7745478e-02   4.0549939e-03
 -5.4452144e-02   1.7465161e-03
 -1.5210654e+00   2.0270995e-03
 -7.6172560e-01   1.9272055e-03
 -1.0722914e-02   8.4481863e-03
  1.3610394e-01   3.8547933e-03
  5.6429606e-02   1.8439565e-02
 -1.5305658e-01   8.5296761e-03
  7.1296796e-02   6.0898559e-03
 -2.3904929e-01   9.9330849e-04
  1.4336036e-01   2.8390766e-03
 -4.6631820e-02   3.7026171e-02
  1.2368617e-02   1.0597985e-02
  2.1123072e-02   2.0878280e-02
 -1.2324047e-01   2.2304354e-02
  1.3029525e-01   5.1843002e-03
 -1.3341464e-01   1.0809691e-02
  2.3426045e-01   4.5699026e-03
 -4.3354741e-01   2.6460044e-02
 -2.4866094e-01   2.4559118e-02
 -1.0409961e-02   7.0984229e-03
  2.2578034e-01   1.6137697e-02
 -6.6256499e-01   7.1587047e-04
  1.9559157e-01   6.4882352e-03
  4.2305738e-01   3.5707860e-03
 -2.7422410e-02   1.0829996e-02
  3.0015540e-01   1.4513904e-02
 -2.9012448e-01   1.0434180e-02
 -1.1145177e-01   8.7667005e-03
  1.1336076e-01   1.1219623e-02
 -1.8018682e-02   1.1304131e-02
  6.8108541e-01   4.8919744e-03
 -7.6748359e-01   1.9054931e-02
  1.0109845e-01   1.7433435e-02
  4.7971678e-01   5.7241926e-03
 -1.2031249e-02   2.8654421e-03
  1.5390371e-01   1.1300230e-02
  2.7142613e+00   1.8876047e-03
  3.7521929e-01   9.7605371e-04
  1.3717767e-02   5.1864348e-02
  4.8005179e-02   1.0802869e-02
  3.7343702e-01   1.8062934e-03
 -2.4550235e-01   4.6213316e-03
  3.1333718e-01   8.1155938e-04
  8.3534211e-02   9.7240247e-03
  4.2219490e-02   8.9281499e-03
  9.7314012e-01   3.1507015e-03
 -4.5749226e-01   3.7523867e-03
 -3.8437553e-02   1.0928822e-02
 -3.0857492e-02   4.3801400e-03
 -2.0759213e-01   1.5513665e-02
  4.1668475e-02   2.2539567e-02
 -1.8881718e-02   1.4615438e-02
 -1.1185328e-02   6.2698042e-03
  1.1756299e-01   9.3772216e-03
  2.3148811e-01   9.0882145e-03
 -1.8674405e-01   1.4117028e-02
 -6.2516317e-02   6.0366113e-03
 -5.1448628e-02   1.4871026e-02
  3.8166050e-02   1.4112684e-02
 -4.2501252e-02   1.6634313e-02
  1.0464825e-01   4.9904957e-03
  6.7051500e-02   2.3258185e-02
  2.7044675e-01   1.9138025e-02
  3.2976195e-02   7.5667622e-03
 -9.9344812e-02   2.2889134e-02
  5.6418620e-02   1.2781876e-02
  2.3096722e-01   2.4111593e-02
 -3.9942168e-02   1.0762642e-02
 -1.9519438e-01   4.5629763e-03
 -4.9505390e-02   1.3007946e-02
 -5.5445209e-02   2.2734301e-02
  9.6163094e-02   1.8875208e-02
  2.5157705e-02   2.2694794e-02
  1.2762854e-01   1.6789924e-02
 -5.6227475e-02   1.7709764e-02
  1.5570144e-03   3.4486141e-02
 -5.9740201e-02   4.0385716e-02
  1.9786943e-01   4.3775853e-02
  2.4049518e-01   5.8803377e-03
  6.6664964e-02   3.9955180e-02
  3.2176144e-02   2.3474442e-02
 -9.8187007e-02   1.7367968e-02
  1.1166123e-01   2.2767333e-02
 -2.9773268e-01   1.0239886e-02
  5.9285857e-02   2.9420486e-02
  1.3700140e-02   7.1816766e-03
 -2.7689397e-02   7.4377563e-03
 -1.6420127e-01   7.6737651e-03
  2.3195826e-01   6.2176636e-03
  1.6238521e-01   1.2911209e-02
  4.0399998e-02   1.0440718e-02
 -1.1094601e+00   2.5498024e-03
 -2.4946766e-02   4.7564884e-03
  1.3236755e-01   4.9814750e-03
  1.1142743e-01   1.8997641e-02
  8.9694030e-04   2.3242463e-03
  7.7460662e-02   4.7484778e-02
  3.9954534e-01   5.6119203e-03
 -1.0471100e-01   9.2608444e-03
 -3.2749102e-02   1.8678196e-02
  1.2150639e-01   2.5448995e-02
  2.3839293e-01   3.9981771e-03
 -5.7762675e-02   4.1377399e-02
  1.0979870e-01   5.7799973e-02
  1.1750400e-01   2.9860226e-02
  7.6143429e-02   2.1401271e-02
  6.0192162e-01   7.1200245e-04
 -1.4436860e-01   5.4778427e-02
 -4.3006442e-02   9.5332945e-03
  3.1788486e-01   3.3582840e-02
 -1.9843056e+00   2.7237120e-03
 -9.6615568e-02   1.8834544e-02
 -1.2088698e-01   2.1271570e-02
 -5.7760745e-02   5.3966981e-03
  7.8759275e-02   1.6639628e-02
  3.7827153e-02   1.6217608e-02
  2.0175155e-02   1.6294749e-02
 -8.2986444e-02   1.2069914e-02
  2.4976721e-01   1.3467169e-02
  2.3657084e-01   5.9414577e-02
  2.0382592e-01   3.1907596e-02
 -5.6750599e-02   1.9879239e-02
 -1.7017990e-01   2.9051196e-02
 -1.2070493e+00   6.6559748e-03
 -2.6315001e-01   1.5211809e-02
 -9.4441593e-02   1.3841335e-02
 -8.1100516e-02   5.8953840e-02
 -3.6843848e-01   7.0919427e-03
  2.8237352e-02   6.9405241e-03
  3.0910978e-01   1.5956765e-03
  9.4597884e-02   1.3811712e-02
 -2.8012943e-01   9.2216482e-04
  9.7975150e-02   7.6429681e-03
 -1.9349529e+00   1.4088651e-03
 -2.1460745e-01   2.3575127e-03
 -6.5645620e-02   9.6695321e-03
  1.7497627e-01   1.3902952e-02
  6.8219200e-02   2.1389611e-02
  1.6696159e-02   4.7011469e-03
  8.8880606e-02   3.3468800e-03
 -3.6975112e-02   3.3190042e-02
 -1.8887064e-01   9.9209277e-03
  2.4321359e-02   2.6066426e-02
 -7.0832781e-02   1.9058038e-02
 -4.4189714e-02   1.5508162e-02
 -1.4479409e-01   1.5773067e-02
  4.5611665e-02   2.1056909e-02
  2.1298317e-02   2.4493257e-02
 -2.2384070e-02   2.1977583e-03
  7.7997208e-02   1.2714442e-02
  2.9476263e-02   4.2594090e-02
  1.0117907e-01   2.5753984e-03
 -5.1478589e-01   6.7251362e-03
 -1.2806422e-01   1.3910271e-02
 -1.1746114e-02   9.8360488e-03
 -1.9882967e-01   6.7763729e-03
  9.0982113e-03   2.6329302e-03
 -3.3191983e-02   3.2133656e-03
  1.5107641e-01   2.1250511e-02
 -8.7037899e-02   2.4403906e-03
  1.2677269e-01   1.5102345e-02
 -5.8604546e-02   1.6505957e-02
  1.0629404e-01   5.6766514e-03
  2.1583442e-02   7.9911072e-03
 -1.4389567e-01   2.5277724e-02
  1.4049114e-01   1.8627984e-02
 -2.7529991e-01   3.1693127e-02
  2.1715538e-01   1.3534266e-02
  9.7750895e-02   1.8324066e-02
  1.0595940e-01   1.7150398e-02
  3.2136302e-02   3.9548464e-02
 -1.0411748e-01   1.6929740e-02
 -7.2131932e-01   1.1115648e-03
 -2.8027681e-01   1.7563462e-04
 -2.4672909e-02   4.5699839e-04
 -6.2362528e-01   8.9409172e-05
  5.3375117e-02   5.1820825e-04
  8.2786620e-01   8.5223286e-04
  4.5173866e-01   9.5468853e-04
  4.4061758e-02   1.5065062e-04
 -9.4304734e-01   1.2972712e-03
 -4.6116367e-02   1.7155110e-03
  2.9181366e+00   1.3677167e-03
 -1.5008600e+00   1.6188183e-03
  5.7800490e-01   2.9748280e-03
 -4.3178114e-01   1.2001682e-03
  8.8283710e-02   4.5315963e-03
  2.5041916e+00   1.2188141e-03
  4.2697310e-01   3.0313034e-03
  1.4134903e+00   2.2659793e-03
  4.2832994e-01   3.7606477e-03
  9.1240275e-01   4.6754112e-03
 -2.5718870e+00   1.0034202e-03
  2.5298616e-01   2.7459450e-03
  2.5938913e-01   4.3351837e-03
 -2.4961659e-01   8.4568642e-04
 -2.3656790e+00   8.8284886e-04
  8.9716679e-01   3.5349117e-03
 -8.1180418e-01   2.2257846e-03
 -9.9928278e-01   2.6885250e-03
 -2.0063152e+00   3.5807866e-04
  1.8359396e+00   7.7099347e-04
 -1.3166417e+00   1.0964433e-03
 -1.8755022e-02   1.7029612e-03
  2.7619877e-01   1.8075168e-03
  5.4934835e-01   2.8021862e-03
  1.2895097e+00   1.5182574e-03
  1.1066433e+00   5.7924248e-04
  3.7064883e-01   9.5023384e-04
  8.3554372e-02   7.4685826e-03
  5.8409476e-01   7.5581800e-03
  5.2075082e-01   1.0844865e-03
 -1.4969197e-02   3.6117113e-03
 -2.6197767e+00   2.9417658e-03
  1.4945044e-01   1.0278797e-02
  1.2596467e-01   2.4466360e-02
 -3.5960354e-02   1.3065096e-02
  8.7532061e-01   9.3627669e-04
 -6.7632222e-01   3.0596815e-03
  3.4873077e-01   4.7278036e-03
 -1.2512222e-01   7.6804082e-03
  6.8695739e-02   1.9943810e-03
 -4.4653412e-02   7.6619610e-03
 -3.6380906e-02   9.1105103e-03
  1.8966155e-01   9.7784121e-03
 -5.7930183e-01   1.9906513e-02
  1.1547507e-01   2.5379762e-02
 -1.1171518e-01   2.5393527e-03
 -8.3447516e-02   9.4063842e-04
 -3.5532370e-02   1.5521799e-02
 -6.6638559e-01   1.0895980e-02
  9.8803632e-02   1.2915045e-02
  4.8724763e-02   1.6410258e-02
 -5.4821982e-03   1.4628491e-02
 -6.5200582e-02   6.7100632e-03
 -6.0659271e-01   7.6357154e-03
 -1.4052767e-01   2.4951816e-02
  3.6988819e-01   1.4222773e-02
 -2.1899308e-03   1.6983440e-02
  2.7400357e-01   1.1913320e-02
  3.5443410e-01   1.7602086e-02
 -2.9378551e-01   2.2969728e-03
  8.5354246e-02   4.3352284e-03
  2.5344619e-01   1.3143602e-03
  5.1033143e-02   3.3078578e-03
 -5.6673914e-02   7.3381686e-03
 -3.1262133e-02   1.3236613e-02
 -1.1473241e+00   2.4201546e-03
 -3.8135529e-01   6.6171275e-03
 -1.1684424e-01   1.5077944e-02
  2.2905309e-01   1.1176141e-02
  3.0877632e-01   2.9373167e-02
 -4.0046772e-01   4.8031225e-03
 -1.0312270e-02   1.3886223e-02
  3.1912553e-01   1.2819522e-02
  7.0868343e-02   8.0125201e-03
  1.9721490e-01   2.4358712e-02
  1.7729729e-01   8.2437508e-03
  8.4315248e-02   1.9361664e-02
  3.7107304e-02   2.0755535e-02
  4.8352696e-02   1.7386461e-02
  1.2051131e-01   5.6580908e-04
 -2.6064033e-02   1.2747915e-02
 -1.5298820e-02   1.2009997e-02
 -8.0518924e-02   2.1498712e-02
 -7.9446679e-01   8.5438564e-03
  1.2159345e-01   1.8475665e-02
 -3.5660821e-01   6.7981686e-03
 -4.3014824e-01   9.7151529e-03
  2.2112477e+00   1.4165540e-03
  1.4228105e-02   1.5425853e-02
  2.6805010e-01   7.0256181e-03
 -3.6607420e-01   2.6642341e-02
 -1.4333589e-02   1.1470394e-02
  1.1835397e-01   1.2649113e-02
  6.9598317e-01   7.9730088e-03
 -6.9277987e-02   3.7673317e-02
 -5.6886202e-01   2.1196838e-02
  2.6414800e-01   2.3117159e-02
 -5.6976512e-02   2.6757659e-02
  2.4730338e-01   2.0496411e-02
  8.6113580e-02   2.8148042e-02
  2.0841897e-01   1.8658375e-02
 -1.7315079e-01   1.5995117e-02
  1.0911157e-01   2.0440310e-02
 -8.0407821e-02   9.6886195e-03
  9.2143901e-02   2.3188984e-02
 -2.2385585e-01   3.8344946e-04
  1.0675665e-02   1.4297436e-02
 -1.1759735e+00   1.5499230e-03
  5.3102542e-03   1.6189234e-02
  4.9719781e-02   2.5364973e-02
  1.0442646e-01   2.3563879e-02
  4.7730821e-01   2.4639463e-02
  7.0004269e-02   3.1431757e-02
  6.9245569e-02   1.9559942e-02
  2.2750816e-01   3.5394162e-02
 -4.5219429e-02   2.3975251e-02
  3.2844588e-02   2.3869149e-02
 -6.5212540e-02   8.8464078e-03
 -1.3494554e-01   2.2345735e-02
 -5.1669631e-02   2.7881170e-02
  1.8278626e-01   4.9942534e-02
  4.1811891e-02   2.2761885e-02
 -7.3471062e-02   3.7488767e-03
 -1.5651566e-01   1.3652913e-02
  2.3038662e-03   1.2416746e-02
  7.5581908e-01   2.6471678e-03
 -2.5081469e-02   1.0154285e-02
  9.3938994e-01   1.4912341e-03
  4.6427742e-02   1.2283425e-02
 -8.3570436e-02   6.2901978e-03
  5.0385457e-02   1.4775312e-02
  4.2797670e-02   5.1182518e-03
 -4.2230874e-02   4.1954028e-03
 -5.8176219e-02   3.8273018e-02
  3.8753453e-01   2.4038857e-02
 -7.0403144e-02   8.5517261e-03
  3.4219947e-02   6.2459256e-03
 -4.5872856e-02   1.5844127e-02
  6.9050014e-02   2.1270992e-02
 -7.1222790e-02   1.8779360e-02
  2.4317935e-01   1.5645182e-02
  1.6396061e-02   2.6905679e-03
 -2.0464562e-01   6.6783605e-04
 -1.3748263e-01   2.7657517e-03
  5.9038132e-01   4.4527777e-02
 -2.3805786e-02   6.2131598e-03
  1.9083212e-01   2.0204023e-03
  2.2528119e-01   1.9071301e-02
 -9.7214520e-02   3.7765056e-02
 -4.9157575e-02   7.5361449e-03
 -4.3195748e-01   7.7972179e-03
 -1.3660100e-01   1.9267604e-02
  4.7572386e-01   4.5539471e-03
  7.7460289e-02   1.5228681e-02
  1.2640937e-01   9.4247749e-03
  5.0687000e-02   1.3614180e-02
  3.1734571e-01   5.8261012e-03
  2.1040136e-01   1.9934831e-02
  2.0612177e-01   1.7485283e-02
 -3.1879548e-02   7.3438040e-03
 -1.8317771e+00   1.1208340e-03
  1.4837216e-01   1.9660586e-02
  2.0784853e+00   1.0240318e-03
  1.5717508e-01   2.8229032e-02
 -3.5058536e-02   1.7128449e-03
  1.0461283e+00   8.7965308e-03
  2.5681356e-01   3.1553842e-03
 -2.4039700e+00   1.9403842e-03
 -1.8501751e-01   3.0130439e-03
  2.6608479e+00   7.1256811e-04
 -2.1269193e+00   2.3958131e-03
 -2.9692302e+00   6.4565125e-03
 -1.7289755e+00   1.5179953e-03
 -1.9705184e-01   2.3133071e-02
 -1.4790728e+00   3.1529327e-03
  2.2012590e-01   9.0161441e-03
  2.2680557e-01   1.7462675e-02
 -3.0041191e-01   9.1863815e-03
 -1.2005910e+00   5.0670099e-03
  2.8646275e-01   1.1177099e-02
 -1.3607620e-01   1.2205557e-02
 -2.9385009e-01   2.0321643e-02
  1.1189944e-01   4.1457772e-02
  1.8341169e-01   2.6446857e-02
 -8.0110624e-02   1.9021414e-02
 -5.6193475e-02   3.6526311e-02
  2.8993094e-02   1.3069828e-02
  1.4333725e-01   1.8088734e-03
 -1.0627180e-02   1.1863736e-02
 -1.3874690e-01   5.0937962e-03
 -6.2040567e-02   2.8413203e-02
  1.2658190e+00   3.4258571e-03
 -1.7968120e-01   5.1117362e-03
 -4.4697341e-02   1.3881563e-02
 -9.9665567e-02   8.2947221e-03
 -1.2144467e-01   2.2998434e-02
  3.5568237e-01   3.7759722e-03
  7.6900199e-02   1.1141059e-02
 -5.3681773e-01   2.9432653e-02
 -4.7966653e-01   2.5368266e-02
 -3.8049728e-02   1.4631501e-02
 -2.6332647e-02   2.0594310e-02
 -1.2355119e-01   1.4527700e-02
  1.0251743e-01   5.0424188e-02
  2.7870681e-02   1.3453903e-02
  9.0738520e-02   2.7237566e-02
  9.3837660e-03   3.7328579e-02
  9.2822257e-03   3.3690952e-02
 -6.2010035e-02   1.1507254e-02
  4.0605530e-02   1.9200109e-02
 -6.8245029e-01   2.9214120e-03
 -1.3180886e-01   3.7995647e-04
 -1.2094971e+00   4.1739200e-03
  3.8031220e-01   7.0737634e-04
 -1.0858458e+00   6.5015844e-04
  2.6651435e+00   4.3073876e-04
  8.2689571e-01   6.4960989e-04
  2.0739059e-01   1.6364628e-03
 -6.1548036e-01   1.3974183e-03
 -8.0190226e-03   2.5673588e-03
 -1.0231213e-02   1.9076369e-03
  1.0105795e-01   3.8731608e-03
 -5.5692530e-01   2.4523404e-03
  1.0281414e+00   5.2306103e-04
 -3.9410591e-01   1.9062723e-03
 -9.6947938e-01   3.0048538e-03
 -1.9108183e+00   6.8656434e-03
  2.8632498e+00   4.3592635e-03
  5.0031632e-01   7.2880001e-03
 -1.9046804e+00   4.3739802e-03
  2.6777103e+00   1.3259433e-03
 -5.8241576e-01   7.1909814e-03
 -8.0615389e-01   3.6315285e-03
 -2.3765771e+00   7.9892587e-04
  4.2059869e-02   1.2295023e-03
  8.4894907e-01   2.4193195e-03
 -1.2205259e+00   4.9615083e-03
  1.9305242e+00   3.3576479e-03
 -3.9528129e-01   3.9146555e-04
  9.6125847e-01   2.1535363e-03
 -7.5623262e-01   4.0511275e-03
  3.2697791e-01   3.6310258e-03
  1.9364769e-02   1.0332029e-03
 -4.0202126e-01   3.1352029e-03
  7.0414233e-01   4.0819482e-03
  1.6440967e-01   1.4088424e-03
 -1.1376222e+00   2.2641183e-03
  9.6949786e-02   2.1372080e-02
 -1.5733986e-01   1.0291875e-02
 -6.3471884e-02   4.7661126e-02
  8.0629535e-02   3.4964070e-02
  8.1507337e-01   4.9164114e-03
 -1.3512206e-01   3.4583751e-02
  1.4764452e-01   1.9728469e-02
 -2.5293220e-02   3.0653416e-03
 -3.5826650e-01   5.9637288e-04
 -1.0658140e-02   4.8119207e-03
 -7.3676378e-01   8.2804338e-04
  1.9191585e+00   2.0977897e-03
 -6.0998831e-02   3.9642456e-04
  8.5264122e-01   9.5590181e-04
  9.2789477e-01   3.5267642e-03
 -1.4725436e+00   2.3077126e-03
  9.2511363e-02   4.6135359e-03
 -4.6081227e-01   1.4424253e-03
 -4.9744192e-01   3.0461918e-03
  1.9263506e-02   1.8315725e-02