  1.3273533e-02   1.6676233e-04
 -5.5773396e-02   1.2969173e-04
 -2.0287164e-01   2.4608560e-03
  1.3946097e-02   3.1035408e-05
  2.4041766e-02   5.4468471e-04
  2.7256380e-03   1.6558645e-04
 -1.7814331e-01   1.2508566e-03
  1.7298585e-01   4.1432734e-04
  2.0843346e-01   6.4007905e-03
  1.1117239e-01   1.3581981e-02
  2.5770455e-03   3.2521104e-06
 -4.5219172e-02   8.4006140e-04
  1.5546687e-01   3.8899230e-03
 -8.0213934e-02   1.0076251e-04
  2.2221139e-01   1.6717375e-03
  1.5521125e-01   1.1896690e-03
  1.1421120e-01   9.3842818e-06
  2.7923322e-01   2.2241328e-04
  8.6173296e-02   2.1558271e-03
 -8.8427849e-02   3.4001938e-03
  2.0611530e-02   4.2067594e-03
  1.8246010e-02   1.5644541e-03
 -1.0839961e-01   5.3595841e-06
  1.4176975e-01   2.7456817e-03
 -3.8160297e-01   1.7362006e-05
 -3.4670487e-02   5.1987119e-04
  1.7347106e-01   5.4767003e-07
 -2.1046194e-01   2.9823210e-03
 -8.9806326e-02   1.4625380e-03
 -1.5014088e-01   4.7597842e-04
 -7.6609668e-03   3.7316706e-05
  5.2816030e-02   1.2838470e-05
 -2.9399688e-03   3.1729051e-05
 -2.0948779e-03   1.9305829e-05
  2.1209804e-02   3.5881607e-05
  2.2769153e-01   8.6121331e-04
  1.8353213e-01   1.5615013e-03
  2.2800866e-01   1.0528650e-02
 -8.0802210e-02   4.8750406e-04
  1.9460508e-01   1.8949958e-02
  3.7448492e-02   4.6046387e-04
 -6.5562896e-02   1.5745481e-04
 -1.3834503e-01   1.4948336e-03
 -7.7577740e-02   1.4519437e-04
 -2.9855093e-01   1.2357028e-05
 -1.6876353e-02   1.3811142e-03
  1.5554966e-01   1.8760792e-04
  2.8755236e-02   6.1462112e-03
 -4.8444252e-03   3.3693889e-03
  1.9334751e-01   1.9154584e-04
  2.2402104e-02   2.3993391e-07
 -8.2184367e-02   4.6243165e-03
  6.6388443e-02   3.1617628e-03
  1.3723460e-01   3.5817888e-05
  1.9908212e-01   4.1151918e-03
  1.4394186e-01   3.2390493e-03
  1.0301953e-01   1.8362451e-04
 -5.8332365e-02   1.4129350e-02
  1.9203909e-02   6.9222000e-04
 -2.0257367e-02   4.2334874e-03
 -1.3939121e-02   7.7368831e-04
 -1.0682826e-03   2.2999350e-02
  5.2451935e-02   1.4955735e-02
 -8.3132260e-02   9.5793540e-03
  8.5670047e-04   3.4211212e-06
  5.9948955e-02   3.4156677e-04
 -3.9024435e-02   1.1178679e-05
  8.5730292e-02   1.3443419e-05
 -2.1841535e-02   1.1530388e-03
  1.7097977e-01   9.5986898e-06
  5.5194095e-02   7.6512784e-05
  4.6642400e-02   1.5312347e-05
 -2.4693543e-01   8.1195623e-07
 -1.3162537e-02   3.2388029e-06
  2.3260832e-02   6.9466257e-03
  3.2786854e-02   7.1522687e-04
  5.5636197e-02   2.7808927e-02
  7.5603150e-02   4.0696068e-03
 -2.2236275e-02   9.0396162e-03
 -2.0174157e-02   9.0125337e-05
  9.9547327e-02   4.4055225e-05
 -1.4907801e-01   5.8609303e-03
 -7.8663968e-02   1.0357343e-05
  7.4188866e-02   2.5197386e-03
 -3.3584423e-02   2.0494461e-03
 -7.9603553e-02   5.2036480e-03
 -1.5200344e-02   5.6497646e-03
  3.5830936e-01   4.1070851e-04
  2.2376444e-02   4.6548354e-03
 -9.9936426e-03   3.0084131e-03
 -1.7844315e-01   1.8528041e-04
 -1.1978347e-01   1.2024462e-03
 -2.6574037e-03   2.3453673e-03
  8.9396276e-02   5.7878025e-04
 -2.2857074e-01   1.3865929e-05
 -6.5120328e-03   8.8268695e-03
 -2.3665440e-01   4.2244009e-04
  2.0228034e-02   4.7849380e-06
  4.0425882e-02   1.3769091e-03
 -5.9108574e-02   2.3339613e-05
  9.7514488e-02   6.6350520e-05
  1.2703829e-01   1.0859424e-03
  1.2847911e-02   3.0664043e-04
 -2.6602152e-01   6.4376589e-05
 -2.0034862e-01   2.5010624e-03
 -1.5853590e-01   2.5365243e-03
 -7.0775717e-02   1.8912402e-03
 -7.0657648e-02   3.2568285e-05
  2.2063673e-02   6.7748933e-04
  5.0789941e-02   8.4624104e-03
 -1.2113495e-01   1.3437489e-04
  6.3293837e-03   1.0465023e-02
  2.2255456e-01   2.0899810e-07
  2.8766131e-02   1.9959516e-04
  1.9681774e-02   4.5111054e-07
  1.2788472e-01   2.9892126e-05
  1.2975743e-01   7.0356276e-05
  1.3448586e-01   6.2322029e-04
 -3.4206457e-02   2.2182476e-05
  1.1740923e-01   6.8893373e-06
 -3.9595634e-01   2.6289872e-03
  1.6247559e-01   6.1934385e-05
  1.3542670e-01   8.2080718e-04
  2.5180796e-01   1.6334436e-03
  1.1676240e-01   2.4167476e-03
  1.6060944e-01   1.8178206e-03
  9.7079165e-02   1.0090528e-04
  4.5394719e-01   5.8512160e-06
 -5.2464622e-01   3.3923250e-04
  1.0017518e+00   5.7104975e-04
  6.1686467e-02   6.1677317e-03
  9.1332003e-02   1.5491377e-04
 -1.2908081e+00   3.0556441e-07
 -1.2651962e+00   1.3894578e-05
  1.6099038e+00   9.5585101e-08
 -1.2896761e-01   1.3080913e-04
  2.2023554e-01   8.3188554e-03
  2.0553688e-02   3.8296008e-03
 -3.1982335e-01   2.3372742e-05
  6.2208140e-01   1.3960624e-04
  5.2542020e-02   8.4701646e-03
  1.4671797e-01   3.1516443e-05
  3.1856754e-01   2.7701273e-04
 -3.9404996e-02   2.9728261e-03
  1.7651306e-02   2.5126213e-04
 -1.2438749e-02   2.0326367e-04
  3.3977163e-01   1.5298201e-06
 -5.4102555e-02   7.3764306e-07
 -8.7266043e-02   9.6722535e-04
 -2.4659516e-01   4.9604051e-04
  2.4725866e-01   5.9797135e-03
 -8.1847474e-02   1.5798204e-02
  8.2694829e-02   1.6515287e-04
 -7.5031072e-03   4.8068399e-03
 -1.3371044e-01   2.0427963e-04
  5.1101007e-02   4.9082872e-05
 -4.7687061e-02   3.9646788e-05
  2.5016133e-02   1.8916138e-02
  2.6187494e-02   2.6679924e-03
  7.9760857e-02   2.1040662e-04
 -1.4009385e-01   5.4030004e-04
  1.8669757e-01   3.2113339e-03
  1.6644639e-01   1.7761552e-03
  3.6989081e-01   1.0997519e-04
 -8.9823641e-02   1.1893715e-04
 -3.1428880e-03   1.9791527e-03
  2.8045096e-02   2.1300092e-08
 -1.3804957e-01   1.5405881e-02
  1.3917394e-03   1.4903751e-04
 -6.5375932e-02   1.3505699e-04
  2.0493507e-02   1.3239537e-07
  1.2453672e-02   7.8798356e-03
  8.2539476e-02   1.6450681e-02
 -4.3867487e-02   3.9511570e-03
 -1.1512894e-01   7.0984877e-04
 -5.9070155e-02   4.2838154e-05
  8.7357841e-02   4.1706208e-04
  1.3660229e-02   1.9564900e-04
 -1.3172042e-01   1.4435874e-06
 -7.4003801e-02   1.0210535e-03
  1.6206404e-02   1.3148972e-05
  3.2308996e-01   6.7556556e-04
 -1.3054925e-01   2.2901197e-04
  1.4441815e-01   2.5904272e-03
  1.6650483e-01   3.6627022e-03
  2.0575428e-01   1.5593767e-03
 -1.9309385e-01   1.4158632e-03
  1.6484962e-01   2.5406005e-04
 -3.6026608e-02   1.0283304e-02
 -5.4059979e-02   1.6738599e-03
 -1.7777173e-01   7.6904809e-03
  1.4272872e-02   5.2714697e-03
 -1.0755669e+00   2.2775364e-04
 -2.3273355e-01   1.1151269e-04
 -1.0129629e+00   6.1162871e-07
 -8.8744301e-01   8.8306231e-04
 -1.0636228e+00   1.1088031e-07
  1.8933667e-01   2.3368622e-04
 -4.7805967e+00   7.7567127e-04
 -1.3547555e+00   2.7577778e-06
 -1.7251050e-01   1.6228261e-04
 -1.8906375e+00   3.5601759e-05
 -1.2919369e+00   2.7922564e-04
  1.5675508e+00   1.5673062e-04
  2.2523606e+00   2.5079612e-04
 -2.9006841e-02   1.3384608e-05
 -3.5635418e-01   3.6600846e-05
 -2.8598684e-01   3.5392403e-04
  9.0048933e-01   1.7364193e-03
  2.1645217e-01   2.5411512e-04
  6.9508117e-01   4.9785158e-09
  3.8446864e-01   8.6441543e-07
 -8.5603774e-01   9.5681622e-05
  1.0405146e-01   3.6618776e-06
  8.3102185e-01   1.6316493e-05
  5.6365049e-01   8.1668833e-05
 -2.4420770e-01   1.1574825e-04
  1.4760658e-01   8.6121056e-03
 -2.6919967e-01   7.4717519e-04
 -9.1905788e-02   6.7722052e-04
 -1.6758904e+00   1.6941937e-02
  1.2594392e+00   1.9212991e-06
  1.7620257e-01   1.5625104e-04
  5.8020806e-01   3.3862481e-05
  8.2977884e-02   1.4914970e-06
 -1.1869984e-02   8.9265936e-04
 -1.1795313e-01   7.6559433e-03
  1.9412203e-01   1.9691387e-04
  9.5750570e-02   3.1077705e-04
  9.5950454e-02   5.7673664e-04
 -9.3485221e-02   2.0098396e-07
  1.3689275e-01   2.8572673e-05
 -5.6184594e-02   1.6194314e-04
 -1.3478596e-02   7.7611450e-03
 -4.1576300e-02   3.1927717e-04
  2.1944489e-01   6.4809509e-03
  4.1926250e-02   9.9629303e-04
  8.9971371e-02   1.1871394e-02
  5.6101419e-02   3.1804054e-06
 -4.6705429e-02   1.3410755e-02
  4.7305401e-02   1.2309498e-03
  7.3789559e-02   1.9719623e-02
 -8.0864586e-02   3.9757066e-03
  7.1852401e-02   5.6763947e-06
 -3.8128942e-02   1.7427070e-02
 -1.0900330e-01   1.3497673e-02
  1.3675706e-01   1.1006987e-04
  7.1143538e-02   6.4183108e-04
 -3.6100131e-02   2.6015728e-04
 -3.5532434e-02   5.0962861e-03
 -6.3934997e-02   1.5987076e-04
 -4.5937593e-03   9.6353954e-03
  3.9380856e-02   3.2687199e-03
  3.0535914e-02   4.2050453e-03
  9.8961787e-03   2.8926171e-03
 -1.3368852e-01   2.7811397e-05
 -4.0190730e-02   3.6927185e-03
 -3.0065730e-01   2.0706556e-04
 -1.2624547e-02   4.5698488e-04
 -6.4784586e-02   1.2989625e-03
  7.1474291e-02   3.5998921e-04
  2.0919368e-01   7.2260555e-06
  1.9948849e-01   1.1954481e-04
 -1.8446141e-01   1.1894365e-03
  4.8786372e-02   1.0528690e-02
 -1.7266558e-01   3.4961363e-03
  1.8900095e-02   8.6777350e-03
  3.6792064e-01   6.2312058e-05
  4.7835071e-02   6.7127394e-03
 -1.1178730e-01   3.6870292e-03
 -3.1928755e-02   8.3186234e-05
  4.1480044e-01   5.4720649e-03
 -4.0277921e-02   1.0925430e-03
  6.4262539e-02   3.2937378e-06
  2.2569022e-01   9.3441849e-05
 -1.6845840e-01   4.3768771e-03
 -5.5804674e-02   2.8358032e-05
  6.3731715e-02   8.4796411e-05
 -5.4380642e-03   3.2402435e-04
 -4.7376875e-02   1.8830288e-02
  1.4780292e-02   6.3606720e-05
  1.0110385e-01   3.9106788e-05
 -1.0797170e-01   3.9854870e-04
  9.5173649e-02   2.6900318e-04
  1.5799615e-01   8.7197259e-04
  1.7972502e-01   2.0206617e-03
 -1.4738311e-02   8.7916211e-05
  1.2748951e-01   3.0986553e-06
 -1.0910034e-01   3.1668035e-04
  6.5182799e-01   3.9374878e-04
  5.2130995e-03   1.1834928e-06
  1.5688207e+00   8.9227069e-05
  6.2866747e-01   1.8734361e-05
 -1.9278155e-01   1.4019762e-06
  1.7433472e-01   3.6711292e-05
 -5.8781564e-02   1.5841961e-03
 -1.7208339e-01   6.0306671e-03
 -1.2224361e+00   3.0077410e-07
  2.8975584e-02   1.0778006e-03
 -2.1273836e-01   9.8151731e-06
 -2.6579681e-01   2.5728095e-04
  1.8458092e-01   7.1126322e-04
 -3.4116110e-01   1.3623339e-06
  1.4980122e-01   3.8887814e-03
  6.5417215e-02   3.6265949e-06
 -3.7160599e-01   7.7648408e-05
  1.7732162e-02   1.6027881e-06
  1.5615084e+00   4.1244132e-04
  1.5599018e-01   4.8517063e-03
 -7.6880399e-03   1.9273533e-03
 -2.8112864e-01   2.0044130e-05
 -2.5488633e-01   1.4246939e-03
  3.7552586e-01   7.2204391e-05
  1.4203373e-01   2.5582970e-06
 -6.4059801e-02   3.8047517e-06
 -2.9306052e-02   6.1752601e-03
 -1.5576446e-01   1.0904131e-02
  3.8771799e-01   3.0101338e-04
  3.1712241e-02   2.4094101e-02
  1.0647221e-01   2.3698423e-07
 -6.9538003e-01   4.4100772e-11
 -1.9601430e+00   7.1926384e-05
 -1.1965062e-01   7.3838160e-06
 -1.4417888e+00   1.9327572e-05
  1.6609172e+00   6.2956929e-06
  9.5477521e-02   4.8133903e-04
  6.1765379e-01   5.7929919e-06
  1.3036174e+00   3.4326149e-04
  1.8302155e-01   2.4551435e-03
  2.5907295e+00   8.7687880e-04
  1.8883146e+00   2.6683763e-03
 -2.8715849e+00   8.6061907e-04
  1.4871269e-01   1.4018896e-04
  1.0546625e-01   4.1520983e-04
  2.5461015e-01   6.7501387e-04
  1.4364982e+00   1.7035076e-03
  6.1638737e-01   1.1174359e-03
 -1.7556660e+00   1.7462929e-05
 -4.5722517e-01   2.4020813e-04
  1.3287148e+00   1.2265582e-06
  2.7829587e+00   1.8140128e-03
  9.4910395e-01   2.7570786e-04
 -4.1705173e-01   1.2671183e-03
  1.7442966e-01   1.5269947e-04
 -2.4398594e-01   5.5220567e-06
  7.5976890e-01   3.9819424e-06
 -5.9253472e-01   4.8298994e-06
 -1.5999013e-01   3.8623333e-03
 -1.9000446e-02   6.7159026e-03
 -9.6234345e-01   3.2227385e-04
  2.1762844e-02   6.2187822e-03
 -9.9646038e-01   2.6273786e-04
  9.0188935e-02   1.9419373e-05
 -8.5013300e-01   2.9443708e-04
  2.1066215e+00   9.8437937e-05
  3.6264142e-01   2.2656671e-04
 -7.8604937e-01   5.7225898e-05
  8.3840214e-02   4.0964962e-05
 -2.2926426e-01   8.0898433e-05
 -2.8414387e-01   7.8415492e-04
 -2.0183423e+00   8.7728702e-05
  2.0053443e-01   3.2368447e-05
 -7.1264431e-02   2.7217984e-05
 -3.9565238e-01   9.3061593e-05
  1.3590971e+00   1.2616711e-03
 -9.6937768e-02   4.7575410e-05
  9.3119949e-02   1.9323765e-05
  3.5000995e-01   2.0152751e-04
 -9.9985039e-01   3.1936313e-05
  4.5928014e-03   3.9106850e-05
 -8.4334272e-01   1.1503962e-04
 -8.1150389e-01   1.7182232e-05
  7.1593189e-01   1.5080633e-03
  1.1924462e+00   4.0977795e-04
  6.1350578e-01   1.2761366e-03
 -1.4324436e+00   1.9183389e-07
  1.2142248e-01   2.9618014e-04
 -1.5535004e-01   1.4507853e-04
  6.4335547e-02   6.2653027e-04
  2.8166142e-01   9.7571569e-07
 -1.3547149e-01   7.4355444e-07
  7.0263076e-01   6.1496249e-03
  7.0077181e-03   9.3452828e-03
  7.1459919e-01   1.1905936e-04
  2.1453643e-01   1.7873816e-05
 -1.4425100e-01   8.4179184e-05
  2.2691429e-02   5.0550041e-04
  1.1975412e+00   2.3211560e-06
 -1.7265008e-01   6.6430407e-06
 -6.1417453e-02   6.0655111e-05
  1.8759668e-02   1.4673883e-06
  1.1978740e-01   1.1192558e-06
  1.0918394e-01   1.7299993e-05
  1.7975779e-01   4.9477624e-04
 -1.3148504e-01   1.2498499e-03
  2.4411801e-01   6.0180586e-04
  4.3927208e-01   3.9829007e-05
 -7.0487663e-02   3.9142659e-03
 -3.5376269e-02   9.4645005e-04
  1.8271066e-02   1.8575118e-04
  1.1647166e-01   3.2086784e-04
  8.4251627e-02   1.9392872e-05
  8.8914540e-03   1.4546415e-04
 -7.7935821e-01   2.8434026e-03
 -1.1046071e-01   2.4678139e-04
  1.6030462e-01   7.1458628e-05
  2.0153117e-01   2.5005266e-04
 -9.1387726e-02   6.9701797e-05
  6.1371084e-02   6.9342530e-04
  3.9155234e-02   1.1063612e-03
 -3.0644795e-01   1.0715319e-03
  1.1948344e-02   1.8752262e-02
 -3.4248248e-02   7.0794425e-03
  6.3281745e-02   1.0485312e-03
 -6.8605542e-02   3.2283758e-06
 -1.2880822e-01   4.3069464e-05
  3.1644076e-01   2.6713082e-05
 -5.8734767e-02   5.4845242e-07
 -9.2402175e-03   1.5101648e-03
 -1.3288485e-01   2.3785904e-06
  1.1697789e-01   7.4805342e-08
  2.3481169e-01   1.7909192e-02
  2.3660702e-01   2.2727704e-04
  8.7966872e-03   9.5081776e-03
  1.6587551e-01   3.5199184e-06
 -3.4352168e-02   6.3709135e-04
  4.6481550e-02   1.1084817e-04
  1.4534992e-01   7.1323079e-06
  1.0730013e-02   9.1478880e-03
 -3.2198280e-02   1.2845954e-02
  1.1320421e-03   2.4381774e-05
  9.7552486e-02   1.2193582e-04
  4.3539148e-02   9.9721523e-03
 -1.8653113e-01   8.9076784e-06
  3.0424169e-01   1.3807055e-03
  2.1228444e-02   9.6105756e-03
 -1.2118986e-01   9.4867195e-04
 -6.9761842e-02   3.7949809e-05
 -1.1663590e-02   1.8385781e-06
  3.5958922e-01   8.1329257e-04
  6.0583293e-02   4.6296185e-03
  5.5967672e-03   9.9457065e-03
 -5.1049072e-02   2.6639793e-03
  9.3377598e-02   1.4684243e-04
  4.2393722e-02   5.7567499e-04
  6.5990739e-02   1.9419209e-04
 -1.4147846e-01   3.7511961e-06
 -1.5663642e-02   1.3198885e-05
 -1.3051652e-02   5.9732236e-04
 -1.1199361e+00   8.9189387e-05
  1.4623645e-02   4.7447468e-04
  1.6640785e-01   8.7560259e-04
  1.8332756e-01   1.7012849e-06
 -1.8917328e-01   3.0311961e-05
  5.0113994e-01   5.1901086e-05
  3.3671811e-01   1.9076396e-03
  8.8568211e-02   9.3190523e-04
  1.5484975e-02   3.0681057e-04
 -1.9231755e-02   1.6107713e-04
  1.4180459e-01   1.3438870e-03
 -1.0292260e-02   3.2152120e-06
 -1.0813140e-01   9.7026658e-04
 -1.7557161e-01   5.5718068e-03
  1.5790221e-01   2.1848534e-04
  1.0365817e-01   3.4895766e-04
 -3.9392356e-02   1.6647532e-04
 -3.5247955e-02   3.1940336e-04
  3.3454105e-02   1.0125712e-03
  1.3126828e-01   1.5631837e-05
 -4.8932631e-02   1.6508553e-03
 -2.4057737e-01   1.6353995e-03
 -2.5298473e-01   3.1803655e-05
 -2.6756387e-02   2.3256418e-06
  1.4244414e-02   5.2661765e-03
 -2.9161033e-01   1.9738191e-05
 -4.4166183e-01   7.3224576e-03
  1.8099813e-01   6.3451182e-05
 -6.0146744e-03   2.9865751e-05
 -2.0493679e-01   6.3527207e-04
 -5.2789763e-02   4.6091821e-04
 -4.4884238e-02   2.0751590e-03
  2.1997243e-02   1.6856629e-02
  9.2745155e-02   2.6937751e-03
 -2.0885207e-01   6.5811753e-04
 -1.6204255e-02   3.1164553e-05
  1.0532823e-02   1.8359775e-04
  1.8276831e-02   4.2151933e-04
 -9.6230708e-02   1.1941888e-02
 -8.0876693e-02   6.3608011e-04
  1.8812075e-01   9.8624006e-03
  9.0590186e-02   7.6060904e-05
 -2.7823705e-02   1.7665874e-02
  3.9388216e-01   7.6173567e-03
  7.2696909e-02   7.4366299e-03
  1.8412288e-02   4.8699418e-05
  2.5577107e-01   7.2539877e-03
  1.1243434e-01   4.8526339e-04
 -1.9818504e-01   6.6379081e-03
  1.4321163e-01   1.0386682e-03
  3.5439700e-02   9.7879255e-04
 -2.0740507e-03   7.9931160e-03
  6.9225155e-02   3.0863128e-05
  1.3282117e-01   1.1439441e-02
  6.4462967e-02   8.0939990e-06
  1.5950894e-02   1.6401680e-02
  6.1984092e-02   4.4325762e-03
  1.8715048e-02   7.0300357e-06
  1.4037721e-01   9.5760524e-03
 -2.5043470e-01   1.2582757e-03
 -1.1709403e-01   1.7761897e-03
  3.7699368e-02   5.3105407e-05
  8.9738414e-02   4.3317750e-03
 -1.5369388e-01   2.2950106e-04
  1.0618771e-01   5.7379639e-09
 -8.7762233e-03   2.0259872e-04
  6.1251950e-02   9.9184239e-05
  4.3742128e-02   1.4365147e-04
  2.8733980e-02   5.8799639e-04
 -4.8410028e-01   2.0956717e-04
 -4.6280921e-02   1.9998046e-05
 -3.1412259e-01   8.9227064e-03
  5.2079879e-02   1.2831407e-03
 -6.6127658e-02   4.9140272e-03
 -2.4817850e-01   2.8356896e-03
  4.6811871e-02   8.8835331e-03
  1.5888642e-01   3.7372540e-04
  1.4613269e-01   3.8346981e-05
 -2.7005837e-04   2.3449022e-04
  1.5165007e-01   3.7079136e-04
  4.5663096e-02   4.7225028e-04
  3.3499457e-02   1.0782493e-04
 -2.7928671e-02   3.3175644e-07
 -5.1290691e-02   7.0429180e-04
 -3.8774095e-02   4.6565554e-05
 -1.4725503e-01   5.5350957e-04
 -4.2657289e-01   1.7882630e-03
  1.2953420e-01   9.4950723e-04
  1.9350318e-02   2.8891713e-05
  9.9096522e-02   9.3834489e-05
  1.1153845e-02   1.0258091e-02
  1.9718160e-01   1.1459631e-05
  4.9655944e-02   5.5831042e-03
  1.5701507e-01   6.2339860e-03
  3.0618092e-02   1.0732601e-02
 -1.2012683e+00   4.5778323e-04
  1.4278108e-02   7.4622687e-05
  6.4582533e-01   2.2196291e-04
 -5.1636285e-01   5.5080111e-04
 -8.8666588e-01   5.4122851e-04
  1.1860521e+00   2.1384460e-04
  1.1882280e-01   3.0232314e-04
  6.3763916e-01   4.0428565e-04
  2.2481682e-02   2.9917237e-07
  1.1862900e-01   8.9676185e-05
  5.2162999e-01   1.6569425e-03
 -2.6468936e-01   5.2034826e-05
  2.6618499e-01   1.0427649e-06
  1.2076237e+00   1.1213099e-03
  3.4750164e-01   5.4197449e-07
  7.0797428e-03   3.1488337e-06
 -1.2916758e+00   3.8278977e-06
  9.4527149e-01   1.1766369e-04
 -1.5302901e+00   5.1765569e-04
  1.9626074e+00   2.4517281e-05
 -3.6154139e-01   7.4835269e-05
 -6.0962003e-01   4.0592458e-03
 -6.5727842e-01   1.2828993e-04
 -1.8150364e-01   4.2165630e-03
  2.8983432e-01   1.2816153e-03
 -5.3045027e-02   1.0007309e-06
 -3.5216033e-01   1.9419915e-04
 -4.1588871e-03   5.5214737e-06
  1.8215220e-02   5.8549870e-04
 -3.2978971e-02   1.0197223e-04
  3.3436355e-03   1.6974651e-03
 -1.0053498e-02   1.8136078e-06
 -2.3581465e-01   2.8887196e-04
  3.5738153e+00   2.6197205e-03
  1.9478546e-02   1.2913964e-05
 -5.9174609e-01   3.8755563e-04
  1.3977658e+00   3.8161679e-04
 -4.8719245e-01   1.6317396e-04
  3.9227065e-01   1.0408084e-04
 -2.0323409e-02   3.6218614e-04
 -4.3720531e-01   6.0141284e-04
  1.2355064e-02   2.0819648e-06
 -1.3043769e-02   3.1840400e-06
 -7.3231912e-01   5.1865360e-04
  8.1589878e-01   2.6092206e-05
 -3.5081732e-01   7.1575777e-03
  1.5819340e+00   3.9807903e-03
 -5.4468806e-03   5.1078564e-07
 -2.1249285e-01   9.4645080e-04
  5.4714406e-01   6.1234423e-05
  5.0360732e-02   2.0543346e-06
  3.6637041e-01   2.9864072e-04
 -6.3743925e-01   1.4069039e-05
 -1.9580491e-03   5.9142903e-06
  2.2562665e-01   2.7659153e-05
  5.6772567e-03   3.7230523e-03
  1.4653306e+00   4.0032747e-04
 -7.8726588e-03   7.9150638e-04
  2.1166240e-01   3.2163854e-04
  1.0544325e+00   2.4207034e-06
 -8.3133012e-02   2.0689059e-03
  3.5543612e-01   8.3259000e-03
  1.0248219e-02   3.8271759e-05
  2.3697075e-01   1.9626454e-03
 -2.5283782e+00   1.8674846e-05
 -5.1027071e-01   2.0446601e-04
  3.0337059e-01   3.5608533e-05
  2.1503669e-01   3.8855715e-04
 -2.4726158e-01   1.2265000e-03
  2.5118320e+00   1.1318050e-04
  1.4124306e-01   9.7932760e-04
  1.4467704e+00   2.2969192e-03
 -3.8287200e-02   3.2203810e-03
  2.0857964e+00   2.2777405e-05
  2.2694956e-01   4.2140321e-04
 -1.9412736e+00   1.9356489e-04
 -2.6256293e-01   1.4627461e-03
  1.3104351e+00   9.1372598e-03
 -1.0315965e-01   1.7982034e-03
 -2.0970814e-01   1.2983286e-03
 -3.6061983e+00   4.3004791e-05
  6.2239444e-01   7.4454198e-05
 -1.8297093e-01   1.3502393e-04
  8.3934361e-01   2.9127852e-05
 -1.1742084e+00   2.3087900e-04
 -1.0151110e-03   1.6202683e-03
 -8.7114356e-02   1.1091063e-04
  2.0032158e-01   4.1665851e-05
  3.3193343e+00   7.7799615e-04
 -2.2594218e-01   1.3942587e-02
 -1.3548477e-01   7.1354676e-05
 -1.2500504e-01   2.9832318e-03
  2.5064798e-02   6.6191121e-03
 -1.1483208e-02   7.0930724e-03
  2.1621922e-02   1.3702761e-02
  3.9091453e-02   1.2310667e-02
  1.6753227e+00   1.3771155e-05
 -3.2273033e-01   1.5929553e-08
  1.9412390e+00   1.6460840e-03
  9.2120506e-02   5.7415917e-07
  4.6378765e-01   1.1199370e-05
  6.8644661e-01   4.5524986e-04
 -1.9451621e+00   6.7090798e-05
  9.3056148e-01   1.4462770e-04
 -1.1356771e+00   1.2134178e-06
 -2.3453648e+00   3.5506953e-04
 -1.5521783e-01   1.8284662e-05
 -5.1041073e-01   3.7119338e-05
 -2.4426675e+00   7.1779755e-04
 -8.5513350e-03   6.8384605e-03
 -7.7452004e-02   4.8636384e-03
 -1.8572266e+00   1.0893456e-04
  7.3534369e-02   1.7014022e-03
  1.6855793e+00   4.9177790e-05
  2.3621120e+00   1.1117980e-04
  1.4653335e+00   4.3112486e-05
  3.9305273e-02   2.4711210e-03
 -3.4456342e-01   1.3417653e-04
  3.3613548e+00   1.7568674e-03
  1.0505688e+00   1.6505539e-04
 -1.5326918e+00   1.1781244e-04
  9.2624957e-03   6.1659080e-06
 -4.4324681e-01   4.5372602e-05
 -7.6295781e-01   1.7211500e-03
 -3.6337286e-02   3.2423015e-03
  6.9336534e-02   2.5110526e-04
 -4.4800103e-02   3.0793744e-04
  9.1519272e-01   3.4449401e-03
  3.9923619e-02   1.0170623e-03
  7.2175942e-02   4.7784564e-03
 -2.5131691e-02   1.8790604e-04
  8.9645304e-02   3.2134978e-06
  1.3892475e-01   3.8555677e-03
 -4.3721054e-02   2.6183776e-03
  1.7019989e-01   6.1371397e-06
  6.4047262e-02   4.2569018e-03
  5.5529904e-03   1.7451745e-03
  1.1210190e-03   9.6188007e-05
  2.0490336e-01   4.6438500e-03
  2.6809260e-01   2.4312388e-04
  3.8112931e-02   7.1139447e-04
 -3.5083652e-03   2.4871813e-04
 -1.4800848e-02   4.7019967e-03
  4.2180244e-02   1.7717123e-04
  8.9869723e-02   4.3076105e-04
  9.4427817e-02   1.4504837e-03
 -2.0241907e-02   6.3571362e-03
 -3.2660805e-02   6.0035670e-03
  8.6094044e-02   3.2534022e-06
 -3.7847180e-02   5.9641106e-03
 -3.1307068e-02   8.0939097e-04
  1.0429871e-01   1.5418671e-02
 -6.1335652e-03   3.7440045e-03
 -1.0503668e-01   3.2702388e-04
  2.9167108e-02   1.1987329e-05
 -1.6100469e-01   4.5865218e-06
 -7.2381608e-02   1.4619376e-03
 -1.2385835e-01   1.5573599e-03
  1.3168527e-02   3.9088331e-08
  3.5722565e-02   4.6792286e-04
 -1.5958971e+00   5.9802478e-05
  8.2676500e-01   5.4449440e-05
  4.5743924e-02   8.0778960e-08
 -3.9012620e-01   3.8291677e-04
 -1.6234419e+00   1.7741388e-04
  1.6137554e-01   1.6794783e-04
  6.4585865e-02   2.7352388e-04
  7.2045773e-01   3.1187890e-05
  2.2441314e-01   1.6248677e-03
  9.4350678e-01   7.8758341e-04
 -1.1406255e-02   1.7747830e-04
 -3.3028975e-01   2.6349834e-04
  1.8354052e+00   2.2284262e-06
 -8.7417498e-02   1.0467479e-05
  8.2127976e-01   4.7545247e-03
 -7.1297175e-01   2.4898798e-06
 -3.4882367e-01   9.1843103e-06
  5.1346928e-01   1.3407508e-04
 -1.2420467e+00   4.4222185e-07
  1.6710939e+00   4.7714169e-05
  2.0146495e-01   6.4084568e-04
  4.5436295e-03   4.8875603e-07
  5.1751047e-01   3.6809642e-03
 -1.5278659e+00   9.8344218e-04
  1.0091012e+00   1.8108141e-05
  4.6425518e-01   1.9385840e-05
 -1.0343930e-01   8.9526489e-05
  9.6187901e-01   3.7627437e-05
  5.8134776e-02   3.9280526e-04
  3.1664819e-02   4.4570165e-06
  8.7713651e-02   1.9645236e-02
 -1.8814453e-01   3.4800519e-03
 -1.6187540e+00   3.9146125e-05
  1.5188853e+00   6.8609852e-06
 -6.1636102e-01   1.6233778e-04
  7.0472163e-01   5.1185825e-06
 -2.1304211e-01   9.0862592e-08
 -3.3092842e-01   2.6862741e-05
 -1.6094010e+00   6.6185081e-08
  1.2886955e-01   8.4167732e-06
 -4.6314204e-01   1.6105074e-05
  1.5359764e+00   1.8330113e-05
 -8.0305137e-02   2.7155125e-04
  2.5301209e-01   7.8665165e-05
 -1.5079821e+00   7.4575568e-05
  2.5923103e-01   2.7229885e-06
 -1.6027558e+00   4.5114729e-04
 -3.5701141e-01   8.1133803e-06
  1.5172197e+00   2.3762828e-04
 -6.0134906e-02   1.1371462e-04
 -1.2023479e+00   1.5871944e-04
 -1.1195294e+00   6.9318196e-07
  9.3969572e-01   3.1371040e-03
  7.5569183e-01   1.1415684e-06
  2.6265424e-01   8.5165998e-04
  1.9142885e+00   8.2573779e-06
 -5.3311026e-01   3.4603747e-04
 -1.2308187e+00   3.1640081e-08
 -1.0553284e-01   5.2535150e-04
  1.1499745e-01   1.7325983e-05
 -3.7887660e-01   6.0905167e-04
 -2.7787231e-02   5.4191030e-04
  3.4671366e-02   1.9296419e-02
 -3.2566188e-04   7.0484605e-04
 -1.8283439e-01   1.5325111e-04
  7.1333110e-02   1.6356317e-03
  1.2610050e-01   3.7290338e-05
 -2.5974825e-01   7.1454741e-04
  6.6522355e-03   4.7236804e-06
 -1.4516179e-02   1.3301089e-04
  9.5165759e-02   4.1342599e-05
 -8.1133365e-04   6.1674272e-03
  5.5244397e-02   3.0346091e-05
  2.8690922e-01   8.0501566e-05
 -1.2613358e-01   1.6407897e-04
 -6.4472452e-02   2.1821102e-04
  1.2244316e-01   1.4748934e-03
 -2.5497958e-02   6.2215063e-03
 -2.6029531e-02   2.6227144e-05
  7.1908585e-03   1.7946766e-03
  8.2988320e-03   1.3350463e-03
  2.7844620e-01   1.2909143e-05
  1.7886928e-01   2.3440252e-05
  1.9390178e-01   2.3140663e-06
 -1.2101477e-01   2.3507748e-07
  4.0967939e-03   6.8372343e-04
  2.6028615e-01   7.4486021e-04
 -2.0839244e-02   6.3471292e-04
 -1.0773220e-01   1.3396840e-03
 -1.3256888e-01   3.2088533e-04
 -9.5345244e-02   6.1255525e-04
 -1.2375753e-01   4.4997432e-06
 -1.0643401e-01   1.1224514e-02
  2.8166741e-02   1.9622862e-02
  1.6141456e-01   3.7251366e-04
 -1.1999744e-01   5.5950385e-04
 -1.2703439e+00   1.9226369e-05
 -3.6354426e-02   1.2849784e-05
 -3.9341971e-02   1.2276606e-03
  2.0505075e-01   3.1935463e-06
 -4.1708097e-01   2.8944958e-03
  4.4587445e-01   1.3583229e-04
 -2.3913898e+00   2.4806606e-04
  2.1035178e-02   1.6503832e-03
  2.5638955e-02   1.3806740e-03
  4.6628830e-01   3.0754867e-04
 -1.0931914e-01   8.6186919e-04
  1.5151612e-01   3.9087124e-03
  1.9668618e-02   1.6922375e-05
  4.1211590e-02   6.9017238e-05
 -1.1523757e-02   2.1565697e-04
 -2.2604264e-02   6.7775017e-03
 -9.5877320e-01   2.3869250e-06
 -8.6935425e-01   2.8373166e-05
  2.3787041e+00   8.7327084e-07
 -2.2204161e-01   1.2611180e-04
 -2.1462746e-01   5.7892064e-03
  6.6768196e-03   1.5656697e-05
 -4.7541863e-01   2.9648900e-05
  2.8280121e-01   2.4660870e-03
 -7.0130594e-02   3.9603005e-06
  3.7963814e-03   1.5762841e-03
  1.1892342e-01   1.5232731e-05
  5.8451306e-02   3.7506267e-03
  4.6418082e-02   3.8702444e-03
  1.4873995e-03   7.0217908e-03
  4.0589756e-01   1.6556854e-03
  8.8470444e-02   2.2833744e-06
  6.7713225e-01   9.7212012e-07
 -5.3048301e-01   4.2335345e-05
 -5.0852853e-01   2.4250589e-06
  1.8511462e+00   7.2732369e-06
  5.1760472e-02   1.7268514e-05
 -5.0726813e-01   5.4228436e-05
 -9.2636287e-01   3.2258971e-04
 -9.4452113e-01   4.3085826e-04
 -2.0562837e-01   5.8330039e-05
 -3.9554101e-01   6.0206581e-05
 -5.0428629e-02   3.9894478e-03
  8.4882450e-01   1.7525387e-03
  1.0419546e+00   7.6518911e-05
 -1.4891393e+00   2.5013651e-07
 -1.3134081e+00   3.7709237e-06
 -4.9352031e+00   3.6844876e-06
  1.9086791e+00   3.1917889e-04
  4.7828904e-01   1.6573636e-05
 -5.7717657e-01   7.3059536e-09
 -1.9159648e+00   1.0596036e-07
  8.2571590e-01   1.2147692e-04
  1.6454817e+00   2.0749425e-05
  3.1542039e-01   5.2559155e-04
 -1.1510673e-01   5.6647521e-04
 -3.3691936e+00   2.3954462e-03
  1.4612371e+00   1.4402108e-05
  1.1406376e+00   5.0227798e-04
 -7.1114564e-01   1.9020766e-03
 -1.0053048e-01   9.7321942e-03
  1.3232765e-01   5.5172696e-04
  1.1227933e-01   3.9609417e-02
  2.3816172e-02   3.7466676e-03
 -4.5334273e-03   1.0132466e-02
  6.9478512e-01   2.2652070e-05
 -6.1477903e-02   2.7959823e-04
 -5.0270427e-02   8.1715843e-05
 -1.6720024e+00   2.1642724e-07
 -1.2735430e-02   3.0831429e-03
 -1.9600102e-01   1.2766637e-03
  5.8746733e-02   9.4823889e-04
 -2.0525234e-02   9.1146497e-04
 -5.1271912e-02   2.3016185e-03
  1.9026785e-03   7.2085852e-05
  3.6624275e-02   6.7057572e-03
 -3.5750203e-02   6.5440906e-04
  9.6042953e-02   5.8531866e-04
  8.0140401e-03   3.4560075e-03
  1.6589445e-01   4.1697879e-04
  3.3472858e-02   6.8710605e-04
  1.8319635e-02   2.2820919e-03
 -2.9829058e-01   8.8916953e-05
 -5.0968989e-03   7.8633046e-03
 -3.5383785e-03   2.2653469e-06
 -7.9481177e-02   3.1219865e-04
 -1.9406103e-01   6.3123769e-04
 -1.1812622e-01   4.2868403e-05
 -9.0961620e-02   7.0151798e-03
  2.7677868e-02   1.9651570e-03
  3.4544326e-02   6.0357575e-05
 -3.4145065e-02   8.5648033e-04
 -4.9142037e-02   3.0912014e-03
  2.5199015e-02   6.9943897e-05
  1.2295927e-01   2.2829659e-03
 -1.2100048e-01   1.0940867e-02
  8.4164895e-02   4.4206688e-05
 -1.9615354e-01   4.4876063e-04
  1.0258972e-01   5.8084399e-05
 -7.5363673e-02   1.3950330e-03
 -1.9714591e-01   5.6537436e-05
  6.9714136e-02   1.4351569e-03
 -3.7934023e-01   2.9193036e-05
 -3.9855801e-02   7.9502061e-05
 -2.9028250e-02   9.4695912e-05
  6.2695540e-02   2.8662265e-03
  6.1899841e-01   7.5068290e-04
  2.3891844e-01   1.5316389e-03
 -1.4368095e-01   6.4904580e-04
 -9.4025962e-02   1.1007854e-03
  2.9850945e-02   1.3599446e-03
 -1.0553052e-01   1.2039856e-02
 -1.1822213e-01   2.1992901e-03
  6.5949298e-02   1.3366435e-03
 -9.1729201e-02   1.0982887e-06
 -2.1896050e-03   6.5806136e-04
  3.0339391e-03   1.2337917e-05
  1.1816601e-03   7.5816317e-04
 -1.2236088e-01   3.0347595e-03
  1.9008429e-01   1.1550084e-04
 -9.1120720e-02   3.7336111e-05
  2.0471969e-01   6.8089976e-05
 -4.5541093e-02   1.9635980e-03
  1.3668635e-01   1.4694712e-07
 -4.5260418e-02   5.2163494e-03
 -2.8595816e-02   7.1938890e-03
 -2.2700254e-02   1.3159597e-02
  3.5735551e-01   4.4916497e-04
 -1.0658041e-01   5.5859238e-04
  5.8451220e-02   4.0155337e-03
 -1.4058809e-01   3.3893564e-03
  1.7708056e-02   2.0604243e-03
  2.9330258e-04   2.3507280e-03
  1.6116850e-02   7.8072364e-04
  3.4549851e-03   1.8169418e-03
 -1.0689042e-01   9.0496062e-05
  5.2855462e-02   1.3124033e-02