42
energy=-295.41918559 config_type=nep2xyz pbc="T T T" virial="-2.476843939939 -17.784514967678 1.804216448903 -17.784514967678 -12.893453336275 -2.384299982747 1.804216448903 -2.384299982747 -2.393900441514" Lattice="15.150709 0.0 0.0 -7.575354 13.116817 0.0 0.0 0.0 30.0" Properties=species:S:1:pos:R:3:force:R:3
B -0.0796 1.29196 13.72213 0.655536 0.255668 0.33556
B 6.42264 12.37401 14.28778 0.892541 -3.050213 -0.080689
B -6.26853 12.49726 14.17761 -0.97079 -3.764944 1.747135
B 1.06694 9.47076 14.85364 0.847434 -3.586698 0.600634
B -1.28374 9.31793 14.25965 -0.130518 2.149395 0.177156
B -0.22242 7.3355 14.68309 2.619197 -1.87036 -0.040699
O -0.02884 10.04827 14.43363 -3.934747 1.258866 -1.114686
O -1.29476 7.94908 14.1807 -1.673951 1.249624 -0.352134
O 0.84466 8.08176 15.14733 1.033357 -0.223896 0.393793
O 1.10951 0.57895 13.76991 -0.182714 4.583166 -1.680026
O 13.88899 0.49604 13.75707 1.099718 2.443711 -0.0864
O 7.71557 11.81212 14.67951 -1.245817 0.956274 -0.785751
C -0.10287 5.74336 14.4509 -0.687225 1.517881 0.977103
C 2.4777 10.07112 14.77713 -4.58721 6.223631 -1.0059
C -2.64472 10.15076 14.20324 0.331076 1.839012 -0.633789
C -1.26346 4.97501 14.26055 0.590945 -0.211132 -0.014755
C 1.21396 3.72729 13.97892 2.502851 -0.15499 -0.524848
C 3.62461 9.49706 14.57958 4.254889 -5.917775 0.722555
C 3.78811 12.18098 14.14913 -0.15072 -2.319251 1.325937
C -2.60723 11.60288 14.00358 1.222769 -0.196205 -0.933243
C -5.03918 10.37347 14.16153 -0.529324 2.586431 1.762445
C 2.49295 11.50848 14.45182 3.852091 1.901195 -0.500919
C 4.89953 10.042 14.38598 1.159115 2.569015 0.14047
C 1.13993 5.11955 14.40627 1.639566 -1.904682 -2.745387
C -1.05868 3.58794 14.0352 -6.531314 0.635327 0.246765
C -3.9467 9.59682 14.20675 2.201723 -1.483922 -0.904981
C -3.7105 12.46069 13.79105 1.089075 -1.847582 0.764909
C -4.89403 11.7957 14.1242 -2.117411 0.011987 -0.946686
C 0.08454 2.88685 13.84169 0.269613 -0.497857 0.346789
C 5.0927 11.47382 14.227 -2.791829 -0.123239 0.443056
H 1.84703 12.40677 14.43344 -1.235794 -1.468782 0.390851
H -4.09643 8.54033 14.04911 0.242694 -0.704968 0.545701
H 2.07166 5.72977 14.16399 -1.00403 -0.658732 1.070987
H -2.27001 5.49626 14.26168 1.03638 -0.96307 0.050399
H -1.63952 12.10066 13.80761 0.012303 -0.577779 0.396024
H 3.52169 8.35102 14.78609 0.81333 1.564648 -0.521775
H 13.03243 3.04375 14.00016 2.164519 0.596816 -0.101833
H 5.85234 9.51865 14.50057 -0.436341 -0.687353 -0.166301
H 4.04105 0.39046 13.43972 -0.567112 -0.765684 0.580049
H 11.32462 0.16016 14.09772 0.138599 -0.232977 -0.287692
H 2.22397 3.25039 13.60319 -1.562198 1.150514 1.083609
H 9.15933 10.01684 14.54332 -0.330276 -0.281068 -0.673434
96
energy=-661.19343613 config_type=nep2xyz pbc="T T T" virial="123.124927967395 83.964200816323 -5.725825643328 83.964200816323 129.875898799636 -7.858290477392 -5.725825643328 -7.858290477392 -7.308098567648" Lattice="30.021594732 0.0 0.0 -16.039046327 25.900688767 0.0 -0.256533476 1.484914357 31.067453402" Properties=species:S:1:pos:R:3:force:R:3
B -5.64398 15.01817 15.62082 1.622283 2.655309 -1.302378
B 14.79669 3.5425 15.58907 3.103463 15.084854 -0.07316
B 4.15991 15.31112 15.59983 5.658043 -14.503938 0.239362
B 19.37352 12.26353 15.50787 -0.872568 -0.989771 1.252975
B -0.96211 23.70127 15.50135 -7.422888 4.791531 -0.045193
B 9.38569 12.29144 15.39562 3.630419 -2.743683 1.675511
O 15.96554 4.46097 15.46417 -1.39082 0.771208 2.378769
O 4.12176 16.47114 15.41461 -0.239655 14.518312 -0.882964
O 17.963 12.79691 15.68941 5.494109 1.577606 -0.812874
O -2.21078 23.01922 15.48609 1.991501 -3.38973 0.680108
O 9.5176 10.73474 15.50279 1.124726 2.618161 -0.3715
O -4.28899 14.56108 15.4549 -1.737444 -1.509366 0.12123
O 19.42319 10.88575 15.5949 -3.981768 -0.083619 -1.271192
O 3.00354 14.60608 15.58506 -0.749089 -0.95634 -0.032063
O 13.75273 4.4244 15.53492 -4.686263 -0.617626 -0.271616
O -5.6445 16.49042 15.55274 3.59996 -2.100881 0.755736
O 10.85093 12.79611 15.5844 -10.321885 7.452856 -0.496213
O 0.11754 23.09209 15.65902 5.401286 -5.710964 -0.134853
C 13.69747 1.52236 15.44691 0.836257 3.70625 0.3282
C 5.70655 12.91742 15.77942 0.501899 2.399388 -3.368429
C 22.2101 12.41423 15.58196 -39.933422 -23.911242 -1.112076
C 0.12544 25.92946 15.42646 -8.742905 2.595062 -0.006388
C 7.94902 14.44372 15.32327 6.172216 -4.525056 3.19784
C -8.2301 14.9208 15.52356 9.03801 7.450362 0.554434
C 20.7059 14.27471 15.59987 -9.2393 2.519038 -0.983566
C 6.74067 14.93652 15.53189 4.148444 5.840891 -1.365705
C 16.10091 1.38761 15.45429 -1.404253 2.790394 -0.310353
C -6.87921 12.89604 15.57645 31.43305 15.089243 0.235112
C 6.90042 12.28934 15.49139 -1.378937 7.562743 1.512906
C -2.31979 26.14785 15.58356 -0.44183 -12.265904 -0.990807
C 15.3697 5.861 15.78706 -7.666871 -19.218619 -0.146916
C 2.73436 16.90785 15.49367 -0.051615 -2.002299 -1.300221
C 17.17602 11.74207 15.54714 7.928649 0.337865 -0.259243
C -1.62387 21.67212 15.64936 -6.125595 -0.277296 -2.45162
C 10.85456 10.48794 15.57169 5.056169 1.686734 -0.984053
C -3.4011 15.6438 15.43638 -14.447831 -3.583455 -0.401507
C 17.87487 10.55946 15.41393 5.276111 1.687434 1.61237
C 2.14879 15.62489 15.43654 -4.395783 -0.722478 1.429561
C 14.03431 5.72222 15.46395 -1.175744 2.65235 2.825321
C -4.17611 16.691 15.59378 -3.8384 9.883235 -0.103117
C 11.69704 11.9637 15.45587 -2.944734 -10.338784 0.641033
C -0.33664 21.63832 15.53801 6.224838 -0.883138 1.625438
C 15.98839 6.78692 15.46967 15.121025 13.288449 -1.473479
C 2.02597 18.08792 15.4443 -2.335043 -8.874716 -0.479497
C 15.96427 11.9525 15.59534 -13.413183 -1.808621 -1.97304
C -2.282 20.43651 15.4004 2.635609 -0.893895 2.065194
C 11.75792 9.35759 15.58775 -5.863102 3.080187 0.882778
C -2.22854 15.52848 15.63345 13.511919 -8.927992 0.603711
C 17.4048 9.36235 15.67213 -2.657666 0.735453 -1.347976
C 0.75411 15.48465 15.53746 8.585592 13.514067 -1.230196
C 13.21418 7.12525 15.54102 -3.746534 -18.508764 0.047062
C -3.59438 18.13112 15.68319 3.440134 -11.809353 -0.915592
C 12.94745 12.02375 15.57084 6.491903 -5.803903 -1.14947
C 0.40272 20.3514 15.61887 5.305967 6.132706 -0.320007
C 15.33466 7.90024 15.61197 -2.469604 11.503534 -2.800085
C 0.61784 18.04133 15.44465 8.801394 -3.260983 -0.26893
C 15.14225 10.7117 15.38323 3.887023 -1.917636 1.465489
C -1.51747 19.18205 15.54273 1.159169 0.950924 -0.945801
C 13.09918 9.44172 15.7469 3.161393 -0.096745 -3.997305
C -1.53411 16.58387 15.55275 7.58384 10.510071 0.129053
C 16.02767 9.36514 15.499 -4.385251 -1.32301 0.706629
C 0.22519 16.84242 15.57211 -9.38095 -11.232672 -0.251609
C 13.84612 8.10093 15.39975 9.404463 13.358326 2.221579
C -2.12849 17.91161 15.47255 -4.673048 0.369835 1.668357
C 13.71847 10.67264 15.38086 -0.452225 1.743479 2.756826
C -0.04044 19.09837 15.60443 -10.006072 9.437368 0.099836
C 20.72626 12.96975 15.48113 2.177254 -2.706872 0.989089
C -1.16867 25.2312 15.49456 2.798677 3.608045 -0.122801
C 8.08064 12.99704 15.54605 0.257926 2.690659 -2.866212
C -6.91866 14.22956 15.60851 -1.682296 6.999821 -0.448945
C 14.92432 2.28812 15.42153 0.38842 -15.893376 -0.825909
C 5.63362 14.31187 15.43292 -7.374013 -1.829308 3.107899
H 7.05594 11.39334 15.58704 0.664303 -10.130225 0.717127
H -5.90936 12.52543 15.55284 1.865302 -1.375362 0.093423
H 16.97684 1.94627 15.51262 1.950849 0.900329 0.060017
H 6.81635 15.98314 15.50073 -0.697852 2.070413 0.115175
H 19.58873 14.96012 15.49908 3.033778 -2.093106 0.48543
H -3.19299 25.20271 15.51423 1.006275 3.687353 0.542858
H 9.00964 14.81892 15.60766 -1.955515 0.944296 -1.078524
H 0.91211 25.40628 15.51055 6.258392 -3.53323 0.317353
H 21.87025 11.19015 15.52068 1.922545 2.621968 0.236286
H 4.78447 12.53584 15.57776 -2.626314 -2.344966 0.397105
H 12.72343 1.87748 15.6121 -1.272849 1.668256 -0.272188
H -8.26478 16.2264 15.48115 0.457141 -3.919754 0.179539
H 11.19329 8.49484 15.67292 -0.676062 -2.320691 0.099704
H -1.54273 14.49303 15.54724 -2.444161 2.123435 0.492067
H 17.18778 6.91322 15.65282 -2.512206 -0.799444 -0.878439
H 2.55881 18.81599 15.48804 5.86513 9.307681 0.327939
H 15.26906 12.83279 15.41438 1.964767 -0.395929 0.807027
H -3.31912 20.46084 15.54798 -1.430221 -0.153829 -0.311958
H 13.53688 12.82404 15.42131 1.596253 3.178828 -0.131053
H 1.59401 20.42462 15.58369 -2.39645 0.588656 0.12518
H 17.95415 8.50825 15.58372 1.624787 -2.349685 0.325353
H 0.26088 14.74199 15.61287 -6.262003 -9.663154 0.933853
H 12.25163 6.90311 15.5921 -4.443682 -0.371319 0.127429
H -4.15648 18.89504 15.44772 -2.816763 3.987764 -0.62525
96
energy=-695.7027315 config_type=nep2xyz pbc="T T T" virial="-19.450169241532 4.281361682712 -7.250611192692 4.281361682712 -12.102289027695 1.343746536203 -7.250611192692 1.343746536203 -11.007187164319" Lattice="30.192976 0.0 0.0 -15.096484267949 26.147883 0.0 0.0 0.0 30.0" Properties=species:S:1:pos:R:3:force:R:3
B -5.174819030701 14.633010342783 14.74271 4.245492023764 0.358749718776 1.589442
B 15.443440202684 3.059818977018 15.20267 2.219086859014 -2.128393146994 0.493533
B 4.947930952661 14.381839672246 14.94883 -0.352560018991 -0.286691976646 1.280854
B 19.868790778069 11.74610868388 14.87668 -0.580443965109 0.526733038449 0.934625
B 0.001571532503 23.135419999896 15.18252 -1.072688795888 3.081367071056 0.010581
B 10.007380753882 11.380969337105 14.73422 1.329431104112 1.571723911938 -1.236034
O 16.545760260632 3.934628903999 14.98033 -2.550806038397 -0.579654831033 -0.876823
O 4.958811048325 15.826029671526 15.24875 -1.398437117709 -1.776990907367 -1.149904
O 18.621020816713 12.329498766533 14.94245 -1.144706051325 -0.774830924174 -2.097297
O -1.2631785145 22.425840083674 14.99942 3.185664010815 0.16326378898 0.29832
O 10.216110668724 10.095379323279 15.2223 -0.675069964211 0.540294044717 -0.774899
O -3.81404907301 13.994290252645 14.83354 -1.549067994057 0.089718102611 -0.32762
O 19.836570690321 10.421418686014 15.12282 0.386395860471 -2.106401025595 -0.489961
O 3.564410922391 13.924859763891 14.86249 2.466951966143 -0.511117163412 -0.760041
O 14.271250245282 3.702889054664 15.57635 -1.060648971027 0.437383070258 -0.240199
O -4.906548937947 16.033270325013 14.85015 -1.32824002906 -0.438705912017 -1.26871
O 11.296970800473 12.084329251682 14.54098 -0.691478089798 -1.355640954196 0.510155
O 1.094231480741 22.353989927518 15.34112 1.351952977653 -0.337366089554 0.818976
C 14.323590058063 0.876549051197 15.23439 -1.583243128719 -1.943198895125 -1.320778
C 6.318630801068 12.09330958145 14.48233 1.762304149125 2.251262883264 -0.703932
C 22.5342107708 11.636368507321 15.10558 -2.71172802442 -0.368648820374 -0.523117
C 1.434581692465 25.550279904973 15.31086 -2.747966327932 -4.950620817973 -0.947624
C 8.724270894562 13.504739422099 14.9939 -0.554471191274 -2.887570963272 -2.961599
C -7.611009036026 14.552620504158 14.64492 -3.262247111902 -1.689329783907 -1.567636
C 21.346450913415 13.789358585999 14.61759 -0.277440102975 -1.554565981622 0.641589
C 7.489280929761 14.036129503906 15.26019 -0.414440880011 1.811418027453 1.639393
C 16.709980046131 0.696408893121 15.0812 3.141180160969 2.430066791926 0.512985
C -6.484159178306 12.404690429514 15.16848 1.945326882922 -1.76747412886 1.590304
C 7.518520759038 11.458809501969 14.16012 -1.241737959634 0.609381082253 1.581114
C -0.976528302954 25.619440064686 14.98488 3.125888070263 1.060723792939 2.303406
C 15.830620341724 5.158838951371 14.92251 3.712186964334 -0.538432245897 1.291437
C 3.590121070521 16.161099762188 15.06673 -0.78309083847 2.438533051872 0.441587
C 17.732090737784 11.137948825416 14.70333 1.663599296463 4.475546889802 1.225
C -0.709858598108 21.163640047021 15.04749 -3.305318339007 -5.117818781054 -0.896403
C 11.566990657524 9.926309233796 15.12135 0.495497895124 -1.583258032822 0.709011
C -2.901079006017 15.005650192169 14.81072 -0.839199036982 -0.558301944411 -2.479359
C 18.55109066833 10.089428771165 14.94816 -0.650978229739 -3.468244956879 1.553576
C 2.803250996479 15.043339814311 14.81095 -2.979297000164 -0.00247280265 1.055295
C 14.537650333752 5.038489037018 15.4028 0.643091147359 2.224596957401 -1.82981
C -3.555788924258 16.239920235538 14.63541 -0.725722152255 -2.298509951928 1.949876
C 12.255600735049 11.096659188182 14.83783 0.083786113601 1.71497299445 -0.630892
C 0.671641392366 21.01983995551 15.32801 -1.845622783171 3.273359122255 -1.082487
C 16.579110417482 6.30250890179 14.82474 -2.619780829039 2.580907173536 2.162849
C 2.922841153467 17.413299806389 15.21976 -1.247303033302 -0.502742917378 0.513986
C 16.395000742651 11.211418913986 14.89199 -0.890147775955 3.382297058964 -0.486492
C -1.483768679525 19.934540098286 14.80124 1.870190039363 0.594242876118 1.545229
C 12.216590579265 8.744869190766 15.28779 1.411234833668 -2.511022093481 1.629816
C -1.562009009244 14.956940103468 14.58278 2.87318592343 -1.155941190321 2.611152
C 17.988500588356 8.882108808431 15.35654 -1.274235992171 0.118196084406 -1.374873
C 1.352310996352 15.041409910422 14.87207 2.261094045926 0.693323850224 -0.574078
C 13.848300415637 6.274659082681 15.27252 -3.570924149336 -2.25444376346 1.636077
C -2.884368849393 17.370120191062 14.80053 -0.469693846798 2.312819031113 0.50299
C 13.642340742328 11.206539096324 14.84036 -1.809830083663 -1.263023880116 1.111743
C 1.40948131852 19.905019906635 15.32596 0.112610904859 -1.436291007459 0.685506
C 15.959660497315 7.507708942823 15.33757 -2.439014976473 0.355176161562 -2.782686
C 1.405121158338 17.486829906924 15.08163 2.01872582134 -2.697144133722 -0.076889
C 15.768010667824 10.081798955518 15.22155 -0.267146324576 -4.899951982304 -0.637776
C -0.758288763245 18.67066005023 14.97005 0.467878154094 2.326273969007 -0.879755
C 13.69226058111 8.772719093017 15.3404 -1.486163110631 -1.670145901556 -0.3179
C -0.832018926275 16.209470055113 14.86417 0.502000903706 -1.453703033253 -1.375063
C 16.53555058449 8.823738904676 15.21039 2.362905014243 0.21502284348 2.117986
C 0.600711076762 16.255319960209 14.92506 2.989430959053 -0.618154198022 0.103574
C 14.507040498058 7.518919039045 15.30288 -0.62568102289 -0.345552958555 1.007151
C -1.483568845211 17.433260098272 14.89032 -0.53522399263 0.111267035454 -0.179095
C 14.338380661545 9.987009050217 15.24847 -0.066138825484 2.634586004381 -1.529016
C 0.714021239062 18.705479952703 15.0581 -1.816822972666 0.412654120347 0.962124
C 21.218120814016 12.2887885945 14.79201 5.468721353263 5.333033637749 0.255409
C 0.13630163902 24.743439990971 15.21547 0.023145165799 2.502987998467 -0.774577
C 8.694130803121 12.124299424096 14.35861 1.755873105564 1.59364488369 2.331423
C -6.433109084168 13.825850426133 14.86739 -0.448018030846 -0.465671970323 0.076211
C 15.570810095693 1.444628968581 15.17215 -1.785777710461 4.371022118291 0.204268
C 6.276670889241 13.42440958423 14.89778 -1.176847940373 0.900164077955 0.303789
H 7.45523068938 10.407209506161 14.11087 0.309856907096 -1.402530020525 -0.707022
H -5.471199220534 11.767200362415 15.68461 -2.738124855421 2.182640181375 -1.925698
H 17.777920082726 1.24886882238 15.04898 -2.294500098493 -1.486899848011 -0.069549
H 7.310690986036 14.885679515736 15.9794 0.792307998487 -0.022837052483 -1.174581
H 20.372590950167 14.344188650508 14.5316 0.853536973007 -0.407505056539 -0.198325
H -1.958188323184 25.314040129712 14.9989 -2.339771074792 -1.129091845012 -0.40165
H 9.678820926123 13.981209358869 14.80046 0.175934031163 0.470455988346 1.20484
H 2.162691644335 24.823689856742 15.25314 2.567963926675 -1.106945170103 0.3481
H 22.402810694177 10.479628516025 15.27152 0.934029143738 2.169934938129 -0.098479
H 5.417020773364 11.675079641173 14.32493 -3.082482129848 -1.960246795815 -0.662097
H 13.420750099855 1.507459111002 15.29748 0.383474987583 -0.187458025402 0.001215
H -7.798578969584 15.555670516582 14.14963 1.117465953248 -0.705790074022 1.128768
H 11.704690513075 7.745629224675 15.62893 0.64301013783 2.080751957407 -0.949835
H -0.98126907701 13.933910065 14.7214 -1.310066864799 2.04106708678 -0.572023
H 17.550270430974 6.50619883746 14.54755 2.335108947907 -0.786426154679 -0.783665
H 3.44263121266 18.306909771958 15.66522 -0.269799062338 -0.941077982128 -0.866445
H 15.696260802822 12.119788960271 14.79114 2.115774939389 -0.91501314015 0.230478
H -2.592178683912 19.868300171707 14.69659 0.915343035663 0.538379939367 -0.093121
H 14.083020807233 12.186389067133 14.65645 -0.083815018925 -0.285699994448 -0.019884
H 2.378081311416 19.797769842475 15.82273 0.094867040279 0.608063993716 -0.722772
H 18.602680530709 8.011838767748 15.66382 -0.404333968334 0.478050026783 -0.213007
H 0.854180933149 14.087269943419 14.80223 0.025160979014 -0.316817001667 -0.014099
H 12.668440406697 6.139689160835 15.35621 2.350634046129 0.696381844293 -0.20566
H -3.541428797719 18.150220234586 15.12759 -0.111008921178 1.189928007353 -0.274505
96
energy=-697.41614991 config_type=nep2xyz pbc="T T T" virial="7.894399374872 16.353195461569 0.306297309615 16.353195461569 -20.246219556203 1.190006112839 0.306297309615 1.190006112839 -5.340392741045" Lattice="30.192976 0.0 0.0 -15.096484267949 26.147883 0.0 0.0 0.0 30.0" Properties=species:S:1:pos:R:3:force:R:3
B -5.06277902658 14.695220335361 14.76684 2.297280742582 -3.886104152173 0.205
B 15.065560199132 3.006199002049 15.06398 -0.539898024124 -0.364194964237 -0.073655
B 4.892180957944 14.461589675939 15.06565 -0.745003123744 -1.868098950651 -0.902282
B 20.144370761157 11.490798665625 15.03691 2.479843979102 -0.315483164266 0.977989
B 0.127611538092 23.219789991547 15.16639 -1.408388842838 2.372593093292 0.884587
B 10.047360774501 11.692249334457 14.72264 4.978056911842 -1.330876329749 -0.649029
O 16.20795024669 3.724158926376 15.00013 0.635375094958 1.433524957912 0.35815
O 4.677841046916 15.804749690137 15.05607 2.125284053504 0.80772185922 0.855644
O 18.977180802969 12.122008742941 15.1366 -3.23114002302 -0.347517785967 -0.382768
O -1.074118508499 22.51643007115 15.17217 -0.360681092365 -1.394388976108 0.070103
O 10.248380683665 10.320939321141 14.51715 1.238620883229 -1.762837082047 0.180953
O -3.729829071648 14.014850247066 14.85486 -1.563966936902 0.952560103598 -0.042774
O 19.999380668778 10.09619867523 15.17322 0.500706952632 -0.715090033167 -0.792062
O 3.638910909882 13.736029758956 14.98829 0.446262123983 1.871704970439 0.37655
O 13.872480247332 3.733849081079 14.9763 -0.448744016732 -0.252595970275 0.183753
O -4.897468941519 15.979350324411 14.72971 -0.480417738846 3.942505031823 -0.044079
O 11.308320816342 12.32389925093 14.81661 2.357197870354 -1.957198156142 1.253168
O 1.163361480908 22.356509922938 15.13042 4.202911101793 1.536711721597 -0.132805
C 13.999700054766 0.826779072652 14.97367 -1.857858118494 -1.788835876934 0.766555
C 6.415410814262 12.29248957504 15.07505 -2.695983949228 0.766485178584 -0.684948
C 22.784120779706 11.770828490767 14.69859 1.464522906505 -1.411452097011 -1.494347
C 1.355161697096 25.620189910233 15.27712 1.468773860157 -2.111132097292 0.68329
C 8.682440912414 13.77424942487 15.11408 2.820442209533 3.163208813172 -0.22105
C -7.499909039538 14.499600496798 15.03839 -1.666775932058 1.025678110408 0.366276
C 21.576590909092 13.724098570754 15.2232 -1.216741120787 -1.823453919402 0.449772
C 7.440600954908 14.41574950713 15.24903 0.453658185136 2.794900969949 -1.030501
C 16.346310055414 0.836558917211 15.45767 0.95176004847 0.731728936955 -0.978627
C -6.1780391713 12.510460409237 14.63299 -2.171128044113 -0.665944856183 0.668262
C 7.639480771049 11.640129493956 14.94952 -0.713586908435 1.382316047268 0.72922
C -1.128128306546 25.565210074728 15.22274 1.223126918889 -1.224487081021 0.364554
C 15.722080331698 5.00747895856 15.03654 0.199074117429 1.772767986813 -1.147683
C 3.366791062075 16.033599776982 15.20039 -0.82270901569 -0.236866945503 -1.639963
C 17.978000730266 11.024448809127 15.09888 1.107818268786 4.057725926617 -0.209079
C -0.699978598663 21.155270046367 15.13884 1.19736296582 -0.515991079314 -1.712221
C 11.686860659157 9.950949225856 14.71234 -4.451789599928 6.039689294889 0.989935
C -2.889959001066 15.080390191433 14.96049 1.977399903853 -1.451481130984 -0.844452
C 18.647190652809 9.855118764799 15.06088 -0.227011141859 -2.141565984963 0.379612
C 2.707830979711 14.790199820632 15.04695 -0.001860086667 -1.308362999877 1.240644
C 14.306280332439 5.018659052344 14.98788 0.567698130857 1.975486962395 0.001857
C -3.553238921603 16.280000235369 14.86345 -1.134590999588 0.006227075156 0.238534
C 12.340480741698 11.19702918256 15.03859 -1.704540914332 1.29328211291 -2.079997
C 0.790361398334 21.109939947646 14.9959 -6.212858185615 -2.802137588457 0.892919
C 16.449990408139 6.161458910343 14.89363 -0.543229962305 0.569061035984 1.30008
C 2.752091143157 17.2576598177 15.10187 1.242508234495 3.540049917696 0.342787
C 16.646630743977 11.231438897318 15.0716 -0.7619640572 -0.863515949527 -0.369181
C -1.489208675005 20.002770098646 15.03435 3.354179981342 -0.281677222183 0.851173
C 12.313880583612 8.810489184322 14.71752 1.88190896433 -0.538491124659 0.41118
C -1.488339006917 14.992060098588 14.8222 -3.738670255223 -3.852969752348 -1.361544
C 17.94243057208 8.636398811483 15.03715 0.849000093815 1.416269943762 -0.204223
C 1.33600097183 14.671219911503 15.17454 0.553102140471 2.120616963362 -0.784856
C 13.650650413593 6.243799095773 14.95738 1.58865507033 1.061736894767 0.41745
C -2.957658840902 17.498310195917 14.79133 2.242657828407 -2.590449148555 0.26701
C 13.722600750667 11.332429091007 15.02335 -0.373356953345 0.704329024731 0.39093
C 1.310351314231 19.840279913202 15.032 0.579555946916 -0.80137803839 -0.386529
C 15.792690494486 7.464998953883 14.98962 -0.201779167296 -2.525588986634 -0.943606
C 1.362751142433 17.246729909731 14.97377 -0.617733014946 -0.225625959081 0.386077
C 15.875940663048 10.009698948369 14.95956 1.461959957843 -0.636428096841 0.625941
C -0.865458762011 18.689280057329 15.06139 3.063570979632 -0.307489202933 -2.095207
C 13.670720588743 8.887949094444 15.0455 3.255306820979 -2.702593215633 -0.610119
C -0.816698930915 16.139430054099 14.97704 3.377174069776 1.053367776294 -0.324519
C 16.484530573434 8.656838908055 14.88911 3.999021226392 3.417725735103 1.313238
C 0.720901054368 15.917259952247 15.0459 -3.148247699832 4.531485208542 -0.314622
C 14.410900498289 7.522409045414 14.99111 -2.862846029982 -0.452622810363 0.24608
C -1.520418846988 17.406430100713 14.90082 -1.168202919047 1.222105077382 1.031472
C 14.490050666784 10.066099040171 15.10207 -3.747595912608 1.319311248243 -0.75578
C 0.608551229224 18.556959959689 14.88587 -0.96570187454 1.894002063969 1.917764
C 21.50736081411 12.29019857534 15.00104 1.604439074932 1.131209893721 -0.137947
C 0.165431645009 24.833859989042 15.32589 -1.301477997554 0.036921086211 -1.174624
C 8.813690824477 12.446699416176 14.81867 -3.013935038278 -0.577865800355 0.76249
C -6.291379082576 13.849880416745 14.81719 0.072974162747 2.456900995166 -0.278559
C 15.144190102972 1.55451899684 15.22534 0.726042830403 -2.560313048093 -0.085662
C 6.253110912206 13.77110958579 14.99052 0.881198789248 -3.181608058371 1.324172
H 7.839200703419 10.619159480727 15.23951 -0.576588043011 -0.649314961806 -0.548465
H -5.139969189487 12.235900340475 14.49921 -0.139540086608 -1.307479990757 -0.255044
H 17.299700090758 1.370128854058 15.52106 -0.212517981852 0.273973014077 0.216478
H 7.341191030479 15.556619513715 15.31363 0.681986906101 -1.417541045175 0.232342
H 20.713610936232 14.133808627919 15.70089 -0.911304950957 0.740381060365 -0.181167
H -2.044818350582 24.90042013545 15.43523 1.037746089325 1.348495931259 -0.869891
H 9.717150955147 14.41935935633 15.15104 -2.590520089591 -1.352509828402 0.027871
H 2.46356166211 25.092029836812 15.22092 -2.845295914771 1.286657188474 0.225585
H 22.923810713334 10.768838481514 14.26057 -0.523851012661 -0.1911389653 0.644258
H 5.37074078293 11.819499644239 15.1869 1.816322993084 -0.104412120314 -0.139808
H 13.097940093307 1.408609132385 14.68244 0.238492956105 -0.662655015798 0.333557
H -7.717778965186 15.62205051123 15.10774 1.051851907374 -1.398333069675 0.041218
H 12.070380524309 7.915219200451 14.274 -1.493242125137 -1.889121901087 -0.62203
H -1.211859072895 13.996030080274 14.2561 0.29809211594 1.750280980254 1.76393
H 17.511560399976 6.038228840024 14.98732 0.657608019327 0.29177095644 -0.325108
H 3.323631219201 18.405649779841 15.16579 -1.191907251978 -3.803977921047 -0.278474
H 16.274460813192 12.27634892197 15.09438 -0.150913059132 -0.892686990003 0.072784
H -2.499348670226 20.074920165558 15.16076 -2.810829984888 0.228140186191 0.20391
H 14.089510823152 12.426699066703 14.91881 -0.094836132055 -1.993570993718 0.320253
H 2.330881315152 19.854169845601 15.29149 1.673776976347 -0.357083110872 -0.149133
H 18.684310519618 7.844398762341 15.21648 -0.99866404363 -0.658659933848 -0.323955
H 0.699830916339 13.833499953643 15.24216 -0.200975088397 -1.334480986687 0.050341
H 12.602730418687 6.320709165188 15.03416 -1.312497018333 -0.276765913059 -0.02272
H -3.516428784391 18.35142023293 14.60119 -0.728410884554 1.74283204825 -0.232603
42
energy=-295.1908667 config_type=nep2xyz pbc="T T T" virial="-10.820498464033 -11.944421939318 2.593761154856 -11.944421939318 6.796678274657 1.415621135289 2.593761154856 1.415621135289 -3.422637972892" Lattice="15.150709 0.0 0.0 -7.575354 13.116817 0.0 0.0 0.0 30.0" Properties=species:S:1:pos:R:3:force:R:3
B -0.05826 1.42915 13.87397 -0.011915 -0.599605 0.465851
B 6.29089 12.50995 13.92802 -1.00152 -2.281621 -1.092895
B -6.37931 12.56538 13.95686 0.309755 -1.839955 0.729943
B 1.06304 9.37923 14.73732 0.063963 0.578146 -1.494029
B -1.40964 9.27225 14.55248 0.371428 1.08072 -1.178533
B -0.1139 7.2871 14.98267 0.202599 -0.8559 -1.980048
O -0.18591 9.95527 14.42598 0.752518 -0.175002 0.869832
O -1.3955 7.91021 14.80784 1.265951 -0.23565 0.745667
O 1.08815 8.02725 14.99362 -1.076567 -0.751285 0.860877
O 1.09766 0.75408 14.20191 1.046429 1.567558 -0.35654
O 13.95317 0.70595 13.60547 -1.909682 1.82742 -0.007233
O 7.4801 11.94278 13.94272 4.460607 -2.795236 0.248722
C -0.01256 5.69227 14.64242 2.546574 0.47 0.012174
C 2.45783 10.12657 14.43566 -0.176555 -2.308082 1.035123
C -2.67632 10.16366 14.18719 -1.313576 -3.007498 1.166597
C -1.16057 5.01466 14.289 -1.866436 3.885162 0.333237
C 1.27241 3.56978 14.32503 -3.926596 1.242093 -1.159116
C 3.68802 9.38673 14.37136 2.625612 3.389584 -1.358646
C 3.84428 12.10788 14.04666 -1.333297 1.641099 -0.706781
C -2.54067 11.56287 14.03943 0.728269 0.120925 2.784006
C -5.10262 10.43347 14.16808 1.156547 -0.918931 0.091934
C 2.53997 11.47252 14.25188 4.187484 2.290842 -0.764014
C 5.00535 10.04229 14.06409 -3.158796 -1.086683 1.056974
C 1.27449 4.933 14.48619 -3.872983 0.369283 1.227055
C -1.11059 3.68145 14.11273 -3.085803 -2.33418 -2.460548
C -4.00838 9.53011 14.34624 -0.960132 1.087716 -1.331204
C -3.63569 12.39719 14.15808 -0.619909 0.919756 -1.931508
C -4.90706 11.77759 13.98047 -2.01985 2.953951 0.647053
C 0.00278 2.92166 14.01966 2.95832 1.06474 1.475416
C 5.04939 11.43982 14.02069 0.867953 1.422214 -0.18545
H 1.83031 12.22574 14.26699 -2.377903 0.761232 0.07036
H -4.42506 8.4462 14.39767 1.87614 1.404572 0.249708
H 2.14849 5.44767 14.62721 2.323658 1.375171 0.387787
H -2.06146 5.76581 14.10237 1.209809 -2.173502 0.62036
H -1.59758 12.02141 14.4379 -0.20175 -0.55728 -1.208335
H 3.8507 8.35737 14.40055 -0.722934 -1.937726 0.280949
H 13.1874 3.08126 13.70891 -0.201526 0.859022 0.651455
H 5.82279 9.35994 13.86978 0.461587 0.088576 0.2044
H 4.14298 0.40829 14.16566 -0.720894 -1.47515 0.094542
H 11.64769 0.11943 13.71503 -1.67934 -1.974331 1.141198
H 2.11765 3.0375 14.17407 2.944164 -1.667487 -0.183073
H 8.97938 10.27142 14.23469 -0.121407 -1.424677 -0.05327
96
energy=-695.31771477 config_type=nep2xyz pbc="T T T" virial="26.785042476955 0.624121289355 -1.808218420639 0.624121289355 -28.565173390636 -6.124318400644 -1.808218420639 -6.124318400644 -10.272635552454" Lattice="30.192976 0.0 0.0 -15.096484267949 26.147883 0.0 0.0 0.0 30.0" Properties=species:S:1:pos:R:3:force:R:3
B -5.239039025745 14.707830347037 15.11688 0.294116103649 1.564733980518 -2.532005
B 15.703870203094 3.066008959767 14.82637 -0.244967897865 1.541882016227 1.779455
B 4.862800957601 14.456409677885 14.9203 0.373473832862 -2.523194024739 -1.177559
B 19.804310782798 11.817498688151 15.01534 0.206607026396 0.398483986314 -1.786702
B -0.072938455559 23.315640004832 15.26427 2.548696864172 -2.050529168827 0.890675
B 9.984810741303 11.1910693386 14.69794 2.758272074235 1.12068381729 0.33631
O 16.700750268807 4.058038893733 14.79574 1.20694891404 -1.297688079949 -0.547596
O 4.895831051201 15.869449675697 14.81762 -0.707131085255 -1.287045953159 0.696632
O 18.556660820063 12.380068770796 14.98265 -1.465219053169 -0.802671902943 0.042904
O -1.109668517757 22.376670073505 15.28242 -2.828434934871 0.983216187357 -1.614986
O 10.20954065516 9.890619323714 15.1602 -0.249553970048 0.452169016531 -1.160647
O -3.986239063334 14.140370264051 15.01961 1.100706888874 -1.677618072911 1.044593
O 19.727220691493 10.439118693258 14.79882 4.587251004307 0.065021696138 0.692606
O 3.541160918314 13.863319765432 14.87304 2.344131063559 0.959511844723 0.684558
O 14.54370024772 3.739699036617 15.38562 0.212598925025 -1.131866014083 -0.427164
O -5.069208929169 16.165790335787 14.90835 1.736087913646 -1.303644114999 1.08189
O 11.278650786941 11.880039252896 14.45281 -2.817635003478 -0.052501813358 0.141443
O 1.08271149061 22.502969928281 15.5344 0.017182864034 -2.052615001138 0.007518
C 14.418050062293 0.94040904494 14.93784 1.926562080377 1.213406872383 -0.625022
C 6.312830797671 12.042029581835 14.62367 -1.631303931733 1.030594108059 -0.836169
C 22.355200783352 11.825868519179 14.57715 -4.379763314778 -4.752038709882 -0.294366