  6.7338538e-01   7.3197240e-04
 -7.5453454e-01   1.8407808e-03
  2.1538271e-03   1.0837216e-03
  5.7266813e-02   9.3996688e-04
  5.5190963e-01   1.4540800e-03
  3.5653748e-02   1.7054597e-03
  8.2363403e-01   2.5054249e-03
  7.2773541e-03   2.3052651e-03
  3.3610914e-02   7.6318497e-04
 -1.4458859e-02   8.4682954e-03
  4.5687519e-04   2.7892496e-03
  4.7718100e-02   3.2235335e-03
  2.9683064e-03   3.7599392e-03
 -4.0494915e-02   2.8384116e-03
 -1.2177367e-02   7.6043368e-03
  4.2072166e-02   4.2091017e-03
 -3.2523479e-02   2.9328626e-03
  7.1413908e-04   4.5785964e-03
 -1.7093845e-03   2.9731146e-03
 -7.5619125e-01   2.9680894e-03
  8.2451917e-02   1.1505476e-03
  2.3775887e-01   1.2202213e-03
  9.4255358e-01   5.1506743e-04
 -6.6715121e-02   7.4067363e-04
  3.5611235e-02   2.4146657e-03
 -3.6229663e-02   1.9776346e-03
  1.8110250e-03   2.6520344e-03
 -1.1915167e-01   1.2192103e-03
 -1.4453793e-02   6.0112933e-03
  1.5456563e-02   7.3868963e-03
 -9.3772365e-03   8.5868537e-03
 -4.1827801e-01   5.3182989e-04
  2.9307920e-02   6.0575483e-03
 -1.2390414e-02   3.7505128e-03
  1.4572410e-01   9.9934565e-05
 -3.3509293e-01   5.6338706e-04
 -3.5508373e-01   7.3856779e-04
  1.8847010e-01   4.4972808e-04
  1.6616132e-02   5.3357647e-04
  8.4514329e-03   7.1620260e-04
 -2.8819707e-01   9.0075383e-04
  2.5531216e-02   3.0639558e-03
  4.0355870e-01   9.0206298e-04
  1.4969987e-02   4.2701908e-03
 -2.9867673e-01   1.7211158e-03
 -6.9259179e-01   5.1631400e-04
 -8.2535997e-02   1.6697759e-03
  3.7990599e-03   2.4035374e-04
 -6.1198279e-02   8.7228939e-03
  2.7426424e-02   1.9060397e-03
 -5.5863060e-02   1.5295472e-03
  7.9812759e-01   2.6215878e-03
  3.1316336e-02   3.7277257e-03
 -2.7521211e-01   1.9138029e-03
 -1.0519773e+00   9.9309022e-04
  9.6659496e-02   2.6718358e-04
  3.6824107e-01   8.6501118e-04
  3.6262068e-01   9.1456273e-04
  9.2042023e-03   5.4978486e-03
  1.0630883e-02   1.5584532e-03
 -4.0811285e-02   6.6023431e-04
  6.1266638e-02   1.1040084e-03
 -1.0313388e-01   2.1720261e-03
  3.3564446e-03   8.1017809e-03
 -3.6674373e-02   7.5627682e-03
  2.1402599e-02   1.9354634e-03
 -4.2202916e-02   3.2680293e-03
 -2.1583758e-01   1.5282671e-03
 -7.2098495e-03   3.7736248e-04
  2.0808818e-02   3.6559559e-03
 -1.9712361e-02   1.0731223e-03
  2.4175974e-02   1.9049810e-03
  6.5963849e-02   1.7000748e-03
  1.0362560e-01   2.6658359e-03
  1.2370171e-02   2.3582166e-03
 -4.7016911e-02   1.7326281e-03
 -1.9206873e-01   9.5146592e-04
 -7.3852045e-03   5.0599268e-03
  4.5723546e-02   2.8463611e-03
 -3.7312414e-02   2.6494840e-03
  1.3710300e-03   3.5577321e-03
  1.6139057e-02   2.6267308e-03
 -1.2617236e-02   2.3219734e-03
  1.2401652e-02   1.9417964e-03
  3.4795590e-02   2.9441931e-03
  3.5237368e-02   4.5201313e-03
 -6.0706928e-02   7.6581840e-03
  2.6256127e-02   1.5550407e-03
  1.3759672e-03   1.8952208e-03
  6.2250808e-02   3.3358237e-04
  2.5853279e-01   6.8834081e-04
  1.2530479e-02   4.3055022e-04
  3.5295177e-02   7.2183334e-03
 -2.9224850e-02   4.8339502e-03
 -6.8584032e-02   1.3117722e-03
 -2.5977083e-03   2.7056632e-03
 -5.9931382e-04   4.3077115e-03
 -1.0732478e-02   5.4895664e-03
  1.5614268e-02   2.0342586e-03
  1.6738452e-02   2.7229399e-03
  9.5942423e-02   1.8145597e-02
  4.5809794e-02   5.7249144e-03
 -1.4079490e-01   2.1933843e-04
 -1.4490150e-01   7.4353295e-05
  2.3410816e+00   3.5284139e-04
  6.4470428e-01   1.9981978e-04
  4.6125832e-01   2.7209602e-05
  1.7608595e-01   5.2688434e-04
 -2.3353121e+00   3.1537464e-04
 -1.1790935e+00   9.4407427e-05
  3.3255252e-01   1.1408993e-03
 -2.6780541e+00   1.3422848e-03
  3.2054409e-02   5.0148362e-04
  1.7828462e+00   1.3734422e-05
  1.1263181e-02   4.0942972e-04
 -4.3399343e+00   1.2440807e-03
 -4.3961406e+00   2.2680794e-04
 -9.9711299e-01   3.0981922e-03
  3.8574424e+00   1.8691946e-03
  9.4122045e-02   7.2669581e-04
 -3.3331709e+00   1.4952286e-03
 -2.2374573e+00   8.7841600e-04
 -3.6028892e-02   2.1960867e-04
  6.9840080e-01   1.4086855e-03
 -5.0118035e-01   7.9489133e-04
 -1.6251580e-01   9.2138705e-04
 -7.2216356e-01   1.1418412e-03
  1.1246096e+00   1.8507550e-03
  7.4183232e-01   1.0325456e-03
 -4.7398853e-01   2.0419087e-04
  8.6760163e-02   1.3319928e-03
 -4.7773581e-02   8.6053936e-03
  1.4441600e-02   1.1315241e-02
 -8.3230615e-01   1.1315874e-02
 -1.2896012e-02   4.6647605e-03
  1.6516092e-01   7.3944259e-04
 -8.4794220e-03   5.3436994e-03
  9.0318955e-03   2.9868803e-03
 -1.1121271e-02   6.6694017e-03
 -3.3129208e-02   1.1542283e-02
  7.5454181e-03   1.9114026e-03
 -2.1110470e-03   3.4004147e-03
 -2.5738265e-02   1.1507417e-02
 -5.6769237e-02   6.9144256e-03
 -1.8455975e-02   1.9103177e-03
  1.7778045e-02   1.1873284e-02
  1.5688486e-02   9.1998540e-03
 -5.7676818e-02   3.0331600e-03
  1.7051120e-01   1.6300578e-03
 -5.2072030e-02   5.1375013e-03
  3.4401543e-02   7.9099024e-03
 -1.9305926e-02   6.8451646e-03
 -9.8964550e-02   3.0124998e-03
  9.1525301e-04   8.4198369e-03
 -6.2014554e-03   4.7171898e-03
 -8.2215574e-03   3.7458823e-03
  8.2510663e-03   1.0820388e-02
 -9.0940176e-03   1.7401237e-03
 -3.5475042e-02   2.7785285e-03
  1.1601638e-02   5.4402435e-03
  2.4387186e-02   7.9222508e-03
 -4.6183154e-02   8.1435042e-03
  1.5113677e-02   4.9771945e-04
 -2.0762943e-02   4.3450594e-03
  1.0872558e-02   7.6099308e-03
 -2.6182177e-02   4.4996459e-03
  2.1483669e-02   4.7779288e-03
  3.1022029e-02   3.9312611e-03
 -1.2460707e-01   3.0159475e-03
  1.0000873e-01   1.2386893e-02
 -4.9019089e-01   2.0479166e-04
  2.6407254e-01   1.9173473e-04
 -2.2064319e+00   1.7383647e-04
 -1.1787429e+00   9.5201819e-04
  7.9891032e-01   1.1975100e-04
 -7.0643795e-01   1.6315986e-04
  1.8877290e+00   4.0060366e-04
 -2.2505549e-01   3.5176243e-04
  2.2119896e-01   2.1249382e-04
 -6.9161159e-01   2.6705498e-03
 -2.3373904e+00   1.4103292e-03
  1.6052542e+00   9.8425173e-04
  4.9446785e-01   2.0623126e-03
 -1.0642864e+00   8.2740537e-04
 -1.7271997e+00   5.7504157e-04
 -2.2737155e+00   1.4576848e-03
  8.8109270e-02   9.0006605e-04
  7.0662272e-01   2.1397835e-03
 -3.0360072e+00   2.9549305e-03
 -8.2353264e-01   8.4182882e-04
  3.7748030e-01   3.4105196e-04
 -2.3367095e+00   1.2064623e-04
  2.0906420e+00   1.8059144e-04
 -1.5790861e+00   1.7129632e-03
 -6.2819916e-01   1.0450544e-03
  6.9446677e-01   9.8171376e-04
 -1.0449973e+00   1.1016825e-03
  5.6688964e-01   4.5961398e-04
  6.0854453e-01   1.9669430e-03
  2.6620949e-02   1.1818863e-02
  7.1204770e-03   4.9748430e-03
 -1.6139079e+00   1.4433005e-03
 -1.7515066e-01   3.9892877e-03
 -2.3629881e-01   1.2746446e-03
  7.3277289e-01   8.8906309e-05
  2.9020915e+00   3.0741643e-03
 -1.1862178e+00   2.4862072e-04
 -1.3625244e+00   3.6334782e-03
 -3.6708769e-01   1.2278960e-04
  5.9065056e-01   4.1517117e-03
  5.4877561e-01   7.3950208e-04
  2.8464746e-01   8.5137249e-04
 -6.5612209e-01   1.4824418e-03
 -1.2121257e-01   1.2392233e-03
  1.3570982e-01   2.4685904e-03
 -1.0628463e-02   8.7133213e-04
  4.9623158e-03   1.7120120e-03
 -5.8486621e-05   5.3342124e-03
 -9.2263287e-03   5.1276023e-03
 -2.6074865e-01   1.5911207e-03
 -2.3660641e+00   1.2057843e-03
  1.7384578e-02   1.6103433e-03
 -2.9630819e-02   5.7302676e-03
 -7.0779892e-03   2.6008033e-03
  2.0740720e-02   8.7531179e-04
 -1.6829838e-01   4.3671834e-04
 -4.6917647e-01   1.3815938e-03
  1.7295344e-02   2.6878400e-03
  6.8537116e-02   9.3247285e-03
  3.4380481e-01   1.2031302e-03
 -5.3786390e-02   1.9063771e-03
 -7.5184941e-02   6.9440284e-04
 -3.7930289e-04   7.7458844e-03
  7.5185793e-03   8.8955145e-03
  1.9608481e-02   4.9266205e-03
  3.2841146e-01   2.8554094e-03
  2.9778197e-02   6.1312844e-03
 -1.4357652e-01   1.9932149e-03
 -4.8911970e-02   9.7897847e-04
 -4.8109975e-02   1.4015652e-03
 -2.4962934e-02   6.7360657e-03
  5.5526162e-04   4.1114790e-03
 -2.8157294e-02   3.7340140e-03
 -2.5200358e-02   1.9930892e-03
  1.3048376e-02   4.8378683e-03
  1.1677328e-02   1.3174794e-02
  4.4365437e-04   9.1782678e-03
  6.7174053e-03   2.4041550e-03
 -2.7324406e-02   2.8331964e-03
  2.9547382e-04   4.8647053e-03
  1.5380790e-03   7.7814022e-03
 -2.7142704e-02   5.4330602e-03
  2.3681061e-02   5.5709984e-03
  6.0540169e-02   6.8539302e-03
 -2.6707264e-02   9.3435012e-03
  2.2041136e-02   4.8715994e-03
 -3.0489517e-03   6.9246916e-03
 -1.0761010e-02   6.0804114e-03
 -1.7390577e-03   2.6299120e-03
  4.2977508e-02   4.9840775e-03
 -1.0041012e-02   3.2564343e-03
  1.8081814e-02   1.2109060e-03
 -1.5260637e-02   1.2603920e-02
  8.3386488e-03   5.4313219e-03
  9.5553482e-03   3.6952207e-03
  8.4645879e-03   3.4399673e-03
 -4.8302867e-02   2.6307767e-03
  1.6449673e-02   1.3655586e-03
 -5.7188801e-02   7.0321462e-03
 -9.6073222e-01   9.2512246e-06
 -1.3732112e-02   8.1048794e-03
  3.8733326e-02   1.0276129e-02
  4.0195751e-01   2.9559957e-03
  6.9116378e-01   2.0678577e-03
 -2.6298654e-01   2.6670501e-03
  1.6510735e-01   1.3501684e-03
 -3.0440575e-01   1.8842884e-04
 -8.9318015e-02   3.6515933e-03
 -7.0776933e-01   1.4973837e-03
  1.3347501e-02   7.2501879e-04
  8.7392017e-02   5.8267836e-04
 -1.3608122e-02   9.7132418e-03
 -2.8644981e-02   2.4196978e-03
 -3.7389165e-01   8.2800642e-04
  6.3643210e-02   3.3508930e-03
 -4.6295100e-01   1.9233165e-03
 -6.6946799e-01   1.3594814e-03
  1.7876914e-02   2.3037423e-03
 -4.8273468e-01   1.5260385e-03
  1.9359410e-02   4.9269735e-03
  2.5945194e-02   4.3687443e-03
 -1.2765505e-02   2.6833338e-03
  1.0617439e-01   1.3646330e-03
  5.3953469e-02   1.1492061e-03
 -8.3440363e-02   1.0945734e-03
 -6.6482699e-01   3.1557598e-03
  5.4906681e-03   2.9781146e-03
  7.5600572e-02   4.4646086e-03
 -3.4862459e-02   1.3668365e-03
 -3.6160904e-01   3.6017582e-04
  1.3128037e-03   5.9153647e-03
  2.5219494e-02   5.1444927e-03
 -1.8273037e-02   6.1285445e-03
  7.5591677e-03   2.8409411e-03
 -2.6409250e-02   2.2441528e-03
  7.2023035e-03   7.7740541e-03
 -5.7157148e-02   2.5534937e-03
  9.7664878e-02   7.0033367e-03
  2.1349009e-02   9.0475837e-03
  2.1290723e-02   1.1833727e-02
 -2.5296101e-02   8.0906702e-03
 -4.9678855e-02   5.2631260e-03
  3.0615622e-01   9.2715526e-04
  7.1956553e-02   3.1791092e-03
  9.2731200e-02   2.0107583e-03
  7.6805577e-03   1.1708087e-03
  4.3995596e-02   4.9950457e-03
  4.6503753e-03   4.6245763e-03
 -1.2358900e-01   8.5902987e-03
  7.0716418e-02   1.9105072e-03
  1.3140682e-02   3.9006667e-03
  5.5638966e-03   2.3578890e-03
 -9.3814759e-03   1.5818855e-02
  1.8399710e-02   2.1678931e-03
 -1.5725220e-02   1.8042424e-03
 -6.6912808e-02   1.4135190e-03
  5.8307689e-02   3.5211979e-03
  2.1289924e-02   1.8933573e-03
 -6.2435575e-02   1.8369711e-03
  1.0364180e-02   6.9585470e-03
 -1.5693065e-02   1.7285982e-02
  5.7450138e-02   5.2008806e-03
 -1.3739391e-02   7.2789905e-03
 -1.4738075e-02   4.8485314e-03
 -7.9187574e-03   5.6916364e-03
  1.7872464e-02   1.7018211e-03
  3.5274222e-02   3.1912627e-03
  6.8034112e-02   6.7592971e-03
  2.7044741e-03   7.9102870e-03
 -5.3216465e-02   8.2818167e-03
 -1.1741374e+00   1.5468985e-03
 -9.6009254e-01   3.5075546e-04
  2.3737774e+00   1.3464375e-03
 -3.8952023e-01   7.0538727e-04
 -4.3331051e-01   1.2004228e-04
 -6.1714208e-01   3.3431887e-03
 -1.2277442e+00   4.6509295e-04
 -2.7752227e-01   1.5366127e-03
 -1.2069744e+00   1.5476979e-03
 -1.9874789e-02   5.8301939e-03
 -2.1037294e-02   1.9338407e-03
 -1.6218047e+00   1.4118028e-03
 -5.6662478e-02   5.2913353e-03
 -5.8879942e-01   5.3245825e-04
 -9.4834492e-03   2.7890510e-03
 -4.4753138e-02   7.9926662e-03
 -8.0260396e-01   1.1620283e-03
 -2.4646756e-01   3.9876495e-03
  1.2275719e-02   4.7082468e-03
  5.0271083e-02   2.6181089e-03
  3.2330775e+00   1.5940679e-04
  5.9539056e-01   2.9935453e-03
 -1.8771262e+00   1.6658965e-03
 -1.0713396e-01   7.0580258e-03
  1.3765360e-01   5.5144061e-03
  9.8548049e-01   9.9607382e-04
 -3.0992939e+00   2.0460931e-03
  2.1735638e-02   6.0833194e-03
  1.4027934e-01   8.7650735e-03
 -2.9990634e-02   3.9024048e-03
  9.3885800e-03   7.2099105e-03
  3.3722799e-02   3.8116742e-03
 -5.2669491e-03   1.7590120e-02
  2.3276960e-03   5.0635436e-03
 -1.1460546e-01   1.8765699e-05
  8.5131699e-01   3.9175828e-04
 -2.2239289e-01   2.4308552e-04
  1.2680830e+00   2.5153445e-04
  7.4624777e-01   1.5796140e-04
  1.2323546e+00   3.4241678e-04
  5.9717143e-01   5.2571731e-06
  1.7750873e-01   8.5824181e-04
  1.1531357e-01   5.2572030e-04
  1.1344502e-01   1.2968853e-03
  5.6205611e+00   1.3178939e-04
  2.7806693e-01   8.9501540e-05
  1.1103880e-01   1.0158235e-03
  2.4743252e+00   1.4170833e-03
 -7.5642872e-01   1.7234448e-03
 -1.2117083e+00   3.0520502e-03
 -9.3560737e-01   4.4877111e-04
 -3.5934073e-01   9.7154430e-04
  1.6912121e+00   1.7557634e-03
  3.7126419e-01   5.0324510e-04
 -7.1459109e-01   4.9412838e-04
 -3.2796213e-01   1.3070792e-04
 -3.8903540e-01   8.1132544e-05
  1.9332324e-01   1.7511968e-03
 -1.3470984e+00   2.7908327e-04
 -4.0280575e-01   7.2347396e-04
 -9.0567127e-02   5.9132004e-04
  5.7266527e-01   8.4815145e-04
 -3.1748521e-01   1.5346338e-03
 -2.7981021e-02   6.7361654e-03
  6.5834043e-03   1.9991721e-03
  7.7511519e-01   9.5224421e-04
  7.3871571e-01   3.1951803e-03
  9.4892912e-02   3.7677537e-03
 -1.4075593e-03   2.4948251e-03
  4.8470586e-03   6.0263751e-03
  8.4974533e-03   4.5908005e-03
  2.9309678e-01   3.2101301e-04
 -5.6488840e-03   3.1920890e-03
  1.0288329e-02   8.4830886e-03
 -3.2712533e-03   2.5985504e-03
 -6.8515614e-02   1.9056102e-03
 -1.3545630e-02   1.1446063e-02
 -2.0239091e-02   4.1520684e-03
  3.8603816e-02   4.5214500e-03
  2.6419166e-02   4.0899320e-03
  2.2280950e-02   9.5451530e-03
 -7.2808042e-03   3.8901123e-03
  1.4291425e-02   7.9669533e-03
  4.4871303e-03   7.0295623e-03
 -7.0264591e-03   3.9818492e-03
 -5.4535526e-04   1.0764119e-03
  6.3373387e-02   5.3753811e-03
  2.1294793e-02   2.2342962e-03
 -4.0192910e-02   4.4558779e-03
  1.2797664e-02   9.2732096e-03
  7.1911039e-03   5.9074219e-03
  2.2911061e-02   3.0723473e-03
 -4.0071402e-03   3.9535682e-03
  8.1623839e-03   2.8733930e-03
  4.0889248e-02   3.7037798e-03
 -9.6736643e-03   2.9343760e-03
 -6.1202110e-03   8.5241981e-03
  6.0777282e-03   5.1320875e-03
  7.9083569e-02   7.4307863e-03
  1.4050094e-02   8.3814897e-03
  5.9482008e-02   9.9753328e-03
  1.4734367e-02   9.8530715e-03
 -1.3353863e+00   4.8228659e-04
  1.6051073e-01   1.8729169e-04
  9.2935884e-01   6.6307059e-04
  2.2501048e-02   5.5258092e-04
  5.1707608e-01   1.4317314e-04
  1.1404663e-01   1.1572378e-03
  5.1235735e-01   6.6191767e-04
 -4.8485550e-01   3.6640206e-04
 -1.6320950e-01   3.8477263e-04
  1.1896456e+00   5.2898104e-04
 -2.0209762e-01   1.1160750e-03
 -1.7429839e-01   6.8590773e-04
  3.4661163e-02   3.1452111e-03
  1.0156870e+00   1.2305386e-03
  5.2612102e-01   1.3053045e-03
 -1.2869498e+00   1.8461294e-03
 -1.3023457e-02   4.5517017e-04
 -3.4009260e-01   1.7345279e-03
  9.0256310e-01   2.8104344e-03
  6.7267430e-01   1.7669582e-03
 -3.3842686e-01   6.3584786e-04
  5.7292503e-01   3.8980687e-04
 -1.8760001e-02   1.6067804e-04
  4.0835908e-01   1.5133983e-04
  1.8108797e-01   6.1511021e-04
 -1.0139605e-01   9.6797198e-04
 -1.4443305e-01   4.2281672e-04
 -8.3402383e-01   1.3287409e-03
  1.9017825e-02   1.1743639e-03
 -1.0460361e-02   3.9175432e-03
  6.8690954e-03   1.0341424e-02
 -1.6792617e+00   1.4857309e-03
  5.7569730e-01   7.8139808e-03
  5.1651881e-03   1.0832824e-02
 -1.3896324e-02   2.0159977e-04
  6.6675645e-01   1.3905436e-04
 -1.1662370e+00   1.4118511e-04
 -7.1263826e-01   7.8327482e-04
  6.0851717e-01   3.5143914e-04
  1.0507431e+00   2.6758420e-05
 -3.4291217e-01   1.1455148e-04
  4.5685902e-01   3.5219500e-04
 -5.3113040e-02   1.0836980e-04
 -2.1924635e-02   6.1661578e-03
  4.3669811e-01   5.2094646e-04
  1.7871390e-01   7.1157422e-04
 -1.0020800e+00   4.0560113e-03
 -9.6229678e-01   4.3925233e-03
 -6.3181341e-01   1.5045664e-03
 -2.6464295e-01   5.4277801e-03
 -3.5205442e-01   1.5287328e-03
 -2.3224397e+00   2.5757211e-03
 -1.7906772e-01   6.8895807e-03
 -1.3919638e+00   4.7928477e-03
 -7.6899618e-02   5.4292328e-04
  1.4071671e+00   3.9636358e-04
  3.2039239e+00   2.6763040e-03
  2.7421753e+00   4.4937525e-03
 -7.2426057e-01   3.1536862e-03
 -2.1607573e-01   8.3987322e-04
 -1.5188736e-01   1.4111253e-03
  2.3462044e-02   1.3703282e-03
  2.7765331e-01   1.8718819e-03
  7.4135014e-03   7.1952329e-03
 -2.5961375e-02   3.5191835e-03
 -5.3838119e-03   1.8165340e-03
  3.1802326e-02   4.2865574e-03
  1.2918833e+00   3.0565856e-03
  3.2375984e-02   5.1850599e-04
 -3.6889944e-02   1.8721038e-03
  4.9419361e-03   8.3959830e-04
 -5.8443518e-03   4.2623925e-04
 -1.0223706e-01   6.1350514e-04
  4.5634303e-02   1.3082994e-03
  2.1222712e-01   6.3335430e-04
  6.4934783e-02   1.1855072e-03
 -6.0136032e-01   1.5598765e-03
 -4.0281307e-02   2.3330275e-03
  1.0028283e-01   8.4954553e-04
 -4.2500228e-02   1.5916259e-03
 -2.2935695e-03   1.8041161e-03
 -1.2610853e-02   4.2735259e-03
  4.0393611e-03   2.2204265e-03
 -8.0424674e-02   6.6057276e-03
  1.7805925e-01   5.6539150e-04
 -1.5048848e-02   1.9549965e-03
 -4.1696142e-02   2.5297368e-03
  1.3531501e-02   3.6484064e-03
  8.8344537e-02   7.9131575e-04
  8.1188288e-03   2.7114779e-04
  6.6345029e-02   1.5290776e-04
 -7.1839811e-03   1.3969716e-03
 -1.9778847e-03   2.1966118e-03
 -2.1224549e-02   2.0982213e-03
  5.8167934e-02   6.5514364e-04
  1.1509502e+00   7.3897967e-04
  4.6144977e-02   3.8300902e-03
  5.0424971e-04   1.0956882e-02
 -4.2907922e-03   8.9398902e-03
  5.0561213e-01   5.1542339e-03
  3.4433025e-01   5.0488925e-03
  8.2422733e-02   3.5840864e-03
 -6.8725616e-01   1.3005475e-03
 -6.9988715e-03   2.4286972e-03
  8.0936472e-05   2.6385868e-03
  8.0624744e-03   2.7652038e-03
  1.4773779e-02   1.1583228e-03
  3.6320005e-02   2.6736963e-03
 -4.0988661e-02   2.1002572e-03
 -8.6882887e-03   4.8831170e-03
 -1.8230218e-02   5.1446224e-04
 -2.4285569e-04   3.6777928e-03
  3.5431691e-02   8.8748112e-03
 -2.3680687e-02   2.3104425e-03
 -1.5468549e-02   2.0142861e-03
  1.0065080e-01   1.7724632e-03
  3.8923331e-02   1.2798139e-02
  1.5424967e-02   5.6921421e-03
  7.4437574e-02   3.2330125e-03
 -9.0105519e-02   1.8229884e-03
  1.1309709e-02   3.0244656e-03
 -1.0538110e-01   2.0429681e-03
 -8.3032306e-03   2.0197101e-03
  1.2286887e-02   2.7188880e-03
 -2.4340887e-01   1.1345638e-03
 -6.6003002e-02   6.6175829e-03
 -5.7529189e-02   2.3126795e-03
 -5.1017251e-02   5.6569329e-03
 -3.5554580e-02   1.6600938e-03
 -4.9284153e-02   3.1049261e-03
 -2.7244961e-02   2.6779375e-03
  2.1702807e-02   7.8658666e-03
  2.2954796e-02   6.4688595e-03
  4.9903311e-02   4.9487390e-03
  1.7721219e-02   4.0977048e-03
  1.7455034e-01   1.4868038e-03
  1.1656199e+00   1.9382289e-05
 -9.6454936e-01   7.2715466e-04
  3.1706982e+00   1.5612375e-03
 -8.2516044e-02   1.0371809e-03
 -1.0791732e+00   1.3670874e-04
 -4.1154110e-01   2.6038484e-04
 -1.2161237e+00   1.4327637e-04
  1.4483052e+00   6.5352296e-04
  1.9002036e+00   7.4774388e-04
 -6.3012618e-01   2.0747720e-03
  5.1463145e-01   6.2509696e-04
 -1.4551305e+00   1.2452564e-03
 -2.4259784e+00   2.7638539e-03
  1.0582293e+00   2.2511824e-03
 -2.3566060e-01   5.7077035e-03
 -1.4810755e-02   2.4549933e-03
 -9.0158381e-02   3.8727306e-04
 -2.4288499e+00   1.3543041e-03
 -1.1515015e+00   2.8570408e-03
  2.2355990e-01   3.9052968e-03
  8.4394836e-01   1.7814893e-04
 -1.5803170e+00   7.4222735e-05
  1.1919200e-01   5.2056366e-05
  2.9206383e-01   1.3601704e-03
  8.6725032e-04   8.2512520e-04
  2.1979959e+00   3.7728835e-04
 -3.9620534e-02   9.9183642e-04
  2.1113670e-01   1.1640170e-03
 -4.2983395e-01   7.6378480e-04
  4.7147963e-02   1.2684129e-03
 -2.6851940e-01   3.8973051e-03
 -2.5619805e-02   2.6412320e-03
  3.9685455e-01   4.2295665e-03
  3.4980282e-02   6.5001510e-03
  2.1767423e+00   4.3494994e-04
  2.7591866e-01   7.4265862e-04
 -5.1418126e-01   2.3514573e-03
  2.2996318e-01   2.1779309e-03
  2.0886593e+00   2.5193059e-04
  3.0668873e-01   2.0245044e-03
  8.8037658e-01   3.0133285e-04
  8.5214162e-01   2.3653460e-04
  7.1858377e-03   9.0870308e-04
  3.9727282e-02   4.4160578e-03
  2.3805968e-02   4.0650545e-03
 -9.2585880e-01   6.9685036e-04
  3.8022050e-01   3.9922544e-03
  2.5701755e-01   1.2023605e-03
 -8.3337119e-03   6.4552836e-03
 -4.4677358e-02   3.2089616e-03
 -1.3334468e-01   6.3906383e-04
  4.5839832e-03   1.0847928e-03
  1.1993743e-02   1.9712269e-03
  2.6196599e-02   1.5432833e-03
  1.7098898e-01   1.6275244e-03
 -1.5776597e+00   5.3386594e-04
 -5.9987384e-01   5.9812790e-04
 -1.1272007e-03   1.5392808e-03
  3.1980702e-01   3.2165193e-03
 -1.1308922e-02   2.4886194e-03
  1.2864920e-01   2.3551467e-04
  1.8990412e-03   1.2509864e-03
 -3.7866789e-01   4.1798628e-03
  2.7061326e-02   4.7570337e-03
 -5.8121346e-03   5.4690698e-03
 -6.6380687e-02   7.4775666e-03
  4.4514760e-01   1.6088342e-02
  1.1233358e-02   9.1375504e-03
  1.5270721e+00   1.5333781e-04
  8.3193415e-01   3.5249686e-04
  6.6166598e-01   3.7216383e-04
  2.4539123e-01   3.5862174e-04
 -1.2111796e+00   9.9323021e-05
  1.2632031e+00   3.0896295e-04
 -1.9281648e+00   2.4394652e-05
  7.7471137e-01   9.1934728e-04
 -2.0956478e+00   7.2115386e-04
 -3.6382083e-02   1.2994289e-03
  4.2760754e+00   5.7963730e-04
 -2.5526097e-01   5.3030369e-04
  1.8470317e-01   1.5041117e-03
 -2.5358766e-01   1.0801645e-03
  1.0774415e+00   1.6292611e-03
 -1.1153899e-02   1.3627489e-03
 -9.5124787e-01   8.1389089e-04
 -8.7230128e-01   1.3037545e-04
  1.2952073e-02   2.2675369e-03
  2.0764334e+00   1.3697057e-03
 -2.0817716e+00   5.8459589e-04
 -1.1474677e+00   3.5741611e-04
 -5.7559875e-03   2.1530954e-04
 -1.4133320e+00   4.5875262e-04
 -6.2828374e-01   1.5303026e-03
  4.7732368e-02   6.5524096e-04
 -7.2393411e-01   2.3897259e-05
 -2.0948014e+00   6.3796598e-04
 -5.9803736e-01   1.3290695e-03
  1.0604581e-02   1.3572518e-02
  1.8047445e-02   1.2838599e-02
  7.2486985e-01   6.6608086e-04
  5.0456978e-02   2.0582285e-03
  2.5888446e-01   4.8142276e-04
  1.5621832e-01   9.0028759e-04
  2.1258079e-01   6.1031862e-04
  8.7392338e-02   5.1124481e-04
  4.8766909e-03   1.4713216e-04
  6.3909703e-01   1.8823212e-04
 -4.0457064e-01   1.1879280e-03
 -4.3373650e-01   3.6982910e-04
 -3.0277979e-02   1.9765866e-03
 -1.9061877e-01   2.3536380e-04
  5.8519278e-02   6.9487649e-03
  2.4375873e-02   2.2734590e-03
  3.1224015e-01   3.4440347e-04
 -1.7812483e-02   5.8966405e-03
  2.7726360e-02   2.4893242e-03
  1.6283180e-03   4.5832554e-03
 -2.3467574e-01   1.4333588e-03
 -3.5096742e-02   3.8004629e-03
 -3.6124469e-04   4.2293714e-03
  3.0737722e-02   6.0603968e-03
 -2.2066407e-02   4.0194103e-03
  1.2460609e-03   3.5986791e-03
  1.2943760e+00   4.3135672e-04
 -1.2490883e-03   2.7038155e-03
 -1.4598888e-01   7.9968193e-04
 -1.6030436e-02   2.7860121e-03
  4.1487757e-02   7.0412620e-03
  8.4825504e-01   1.0591452e-03
  8.8557288e-02   2.3209010e-03
  3.1433001e-02   7.3708030e-03
 -1.0403867e-01   7.8946892e-03
 -8.0620352e-04   3.1780479e-03
  9.2172006e-04   6.3441403e-04
 -5.4863315e-02   6.6918922e-03
 -1.7853783e-02   7.4016140e-03
  3.4565845e-01   3.0531856e-04
 -1.8559190e+00   5.2977336e-04
  1.8123451e+00   5.1069789e-04
 -2.0756550e-01   4.6857051e-04
  3.5825318e-01   9.9663222e-05
  1.0069447e+00   8.4829424e-04
 -8.9114064e-01   1.1826181e-04
 -5.6634122e-01   5.0229131e-04
 -5.4048717e-01   4.2707857e-04
 -7.7815342e-01   3.9978838e-03
  2.9518747e-01   2.9698324e-03
 -1.2800796e-01   6.0904754e-04
  1.9069709e-02   2.4325929e-03
 -1.6292882e+00   1.1188262e-03
 -7.1601194e-01   2.4740701e-03
 -3.7780039e-02   1.2015828e-03
 -1.8279312e-02   3.2715013e-04
 -4.1672474e-01   4.8450604e-03
 -1.0848472e+00   2.6797079e-03
 -3.0544147e+00   9.7511243e-04
  1.6908400e-01   1.2964964e-03
  1.8688187e-01   5.5706617e-04
 -3.7097856e-02   7.5351837e-04
 -9.7861463e-01   1.1655450e-03
 -9.8851269e-01   3.5423916e-03
 -1.1053738e-02   5.5988254e-03
 -1.0630763e+00   9.6380000e-04
  2.0925395e-02   4.5768335e-03
 -7.6707430e-02   1.0946068e-03
 -4.1883685e-02   2.4593696e-03
  4.5358755e-02   2.9841138e-03
  2.5211579e-01   8.4696081e-04
 -1.4252401e-03   2.2233762e-03
  2.3869779e-02   2.7246859e-03
  2.1402457e-01   3.3570325e-04
  4.0194008e-01   3.8284503e-04
 -4.8004851e-01   5.8615499e-04
 -3.7526023e-01   2.2742711e-04
  1.0507042e+00   1.7638830e-04
 -4.7039207e-02   1.4364603e-03
 -4.3827298e-01   2.9294071e-04
 -8.9063190e-02   1.1428058e-03
  2.1441160e-01   3.9663503e-04
  2.3428099e-02   3.0070501e-03
 -2.5532699e-01   1.5498141e-03
 -5.7648845e-02   1.1810977e-03
  2.1323752e-01   1.4531109e-03
 -4.0467361e-01   7.0973224e-04
 -2.2862231e-02   1.9298121e-03
 -6.0756832e-02   2.7764952e-03
  1.9257905e-01   6.0331449e-04
 -8.4612292e-01   1.9401335e-03
 -3.0764201e-01   2.4522678e-03
  2.8206909e-03   9.6768368e-04
  9.5222563e-02   1.1694687e-04
  1.8804550e-01   5.3517934e-04
 -3.5097696e-02   7.5727724e-04
 -9.0909898e-02   9.3520852e-04
  6.4328261e-02   3.6060070e-03
  1.9418661e-01   3.4683244e-03
  8.2272522e-02   4.4533622e-04
  8.1315428e-02   5.6537997e-04
 -2.4212707e-02   2.0364649e-03
 -2.3755826e-02   3.1799185e-03
 -3.3642482e-02   8.1630293e-03
 -5.9139091e-01   1.4889921e-03
 -1.4939778e-01   4.0740133e-03
 -8.1327438e-02   2.1826092e-02
  5.2965134e-01   1.0673641e-04
  5.2408284e-01   5.6639104e-04
 -2.7345788e+00   9.9687243e-04
 -1.5711620e+00   6.6959328e-04
 -4.0470713e-01   6.4765778e-04
  7.3090714e-01   4.1113156e-04
 -1.2944297e+00   1.8532740e-04
 -7.4916393e-02   1.2531533e-03
  5.7113945e-01   2.9290700e-03
  3.8572829e-03   3.7939737e-03
  1.0777508e+00   7.5381849e-04
  9.6002096e-01   1.6347531e-03
  5.4340643e-01   5.2873599e-03
 -9.8674637e-01   1.0682981e-03
  1.4603370e-02   1.3379256e-03
  6.1692405e-01   1.9802470e-04
  1.0685116e+00   2.3709623e-04
 -4.9309503e-02   2.1483153e-03
 -2.8387931e-01   4.3286914e-03
 -8.4410897e-03   2.3026448e-03
  1.4033915e+00   1.2362987e-03
 -9.8684961e-01   7.2700164e-04
 -1.4823929e+00   2.4668963e-04
 -3.0803286e-02   2.6138362e-03
 -2.4688493e-01   2.1936311e-03
  1.2011662e-02   4.0482557e-03
 -3.2751989e-02   7.2252401e-04
  6.5221006e-01   7.1448402e-04
 -9.4695479e-02   1.0925411e-03
 -5.0504178e-02   1.2011910e-02
 -6.9890253e-02   2.2558025e-03
  2.0176426e-01   2.2490891e-03
 -1.6866466e-01   5.0362679e-03
  6.5519370e-02   9.3440330e-03
 -1.2607732e-01   6.4101885e-05
  6.8752307e-01   5.6057086e-04
 -3.1511214e-02   5.9738359e-04
  2.0025473e+00   1.1608254e-03
  1.1750787e+00   2.3466305e-04
  6.3686496e-01   1.5102910e-03
  3.0681336e+00   5.3388765e-04
  1.9674660e+00   7.8908307e-04
  4.1493621e-01   5.4548215e-04
 -9.3309337e-01   3.1980363e-04
 -5.2806115e+00   5.9489027e-04
 -7.3233640e-01   5.0809648e-04
 -7.9234160e-02   7.2606872e-03
  4.9482006e-01   2.8172262e-05
 -5.3011572e-01   1.0423086e-03
  4.3729283e-03   3.0164130e-03
 -1.2696730e-01   1.3834812e-03
  2.4584603e+00   5.3564482e-03
  2.0722114e-01   6.7288410e-03
 -2.6650876e-02   2.6200085e-03
  7.8387380e-01   7.4175891e-04
 -3.3260603e+00   7.9205132e-04
  7.0168412e-01   2.4452814e-04
  1.6174551e+00   3.9917631e-03
 -6.5837502e-02   5.1243827e-03
 -9.0384626e-01   1.8868551e-03
 -8.3417541e-01   1.0459708e-03
  1.9501697e-02   6.8492792e-04
  2.0780888e-01   3.0733012e-03
  3.2750946e-02   2.8526494e-03
 -9.6637998e-03   6.1893445e-03
  3.8836259e-01   4.2862468e-03
  2.1173131e-01   9.0034772e-03
 -4.3917350e-03   3.3446539e-03
 -6.2936509e-01   1.7425434e-04
 -1.0314834e+00   1.8087412e-04
 -6.8406540e-04   1.7581141e-04
 -3.4076908e-01   3.7538525e-04
  5.6537163e-01   2.4163640e-04
 -9.7771835e-01   2.2928065e-04
  4.1654399e-01   2.1893346e-04
 -7.1457875e-01   2.9636570e-04
 -1.1552671e-01   9.9026295e-04
 -5.8455265e-01   1.8972697e-03
 -9.5911545e-04   6.4429641e-04
 -8.7437463e-01   7.9498510e-04
 -4.4687307e-01   1.0008861e-03
 -7.1981236e-02   2.1230397e-03
  5.7390124e-01   3.8935042e-03
  1.9933807e-02   2.9117013e-03
 -7.8691088e-02   1.2483466e-03
 -3.6483136e-01   9.4562850e-04
  8.6738952e-03   4.1562533e-03
 -7.8036642e-01   1.2039782e-03
  7.6677255e-02   3.3133521e-05
 -1.6646314e+00   3.6500682e-04
  6.0078591e-01   8.0664299e-04
  2.9837561e-01   1.8107722e-03
  4.2398447e-01   3.1865139e-03
 -7.9473513e-01   2.7186745e-03
 -1.1976908e+00   1.4293325e-03
 -9.4281361e-03   1.1621317e-03
  1.0552031e-01   2.3203199e-03
 -1.3198460e-02   5.0365631e-03
 -5.0811291e-01   4.7017490e-03
 -1.2028189e+00   4.1790865e-03
 -1.4005198e-01   7.1663386e-03
 -4.4526150e-03   1.3964592e-03
 -1.0807516e-01   6.2616476e-05
  1.5241798e+00   3.6556492e-04
 -1.3726743e+00   9.1197660e-05
 -1.1585186e+00   8.7566493e-04
 -8.0043548e-01   4.4929991e-05
  4.0203312e-01   4.8916874e-04
  2.9344591e-01   2.1635774e-04
 -5.3249872e-01   3.2614291e-04
  2.7359326e+00   5.2871910e-04
  5.3863680e-01   6.1599392e-04
  1.4436486e-02   1.4793311e-03
  1.1091404e+00   2.0282508e-03
  1.6016555e+00   1.0389660e-03
 -9.2507368e-03   5.8684596e-03
  1.0830700e-01   2.5428466e-03
  2.8617585e+00   9.5501274e-04
 -9.5741177e-01   6.6645189e-05
  1.2842709e+00   1.9357941e-03
  3.8193402e-01   6.0217408e-03
 -1.6317622e-01   1.3596698e-03
  2.8811352e+00   5.3750770e-04
  8.0375713e-01   1.8155624e-04
 -1.6902196e+00   7.1936473e-04
  2.1909874e-02   1.8617301e-03
 -1.2212802e+00   2.4420368e-03
 -2.8122699e-02   1.5848171e-03
  6.7772573e-01   1.6172541e-03
  1.2840208e-01   9.0696511e-04
  2.3927529e+00   3.9719124e-03
  1.8251967e-02   6.9216392e-03
 -9.5649499e-01   2.0408569e-02
  2.6046332e-02   4.0896209e-03
  6.5373331e-02   4.0508956e-03
 -9.0214582e-03   9.6993037e-03
 -1.5070760e-01   2.8530357e-04
 -5.6777537e-01   7.7556795e-04
  1.9894040e-01   2.0199483e-03
  5.3374690e-01   9.8240760e-04
 -2.6824682e+00   8.8839617e-04
  1.8211086e+00   7.8424974e-04
 -6.3282043e-01   6.7515997e-04
  9.6991718e-01   9.2797482e-04
 -1.1795976e-02   1.9485954e-03
 -2.7396301e-02   3.0825122e-03
  4.6667818e-02   7.8065055e-03
  8.0414015e-01   3.9738500e-03
  4.1546431e-01   5.2580046e-03
  4.3963470e-02   5.8030486e-03
 -5.1093094e-02   5.8839717e-03
 -2.1938864e-02   4.9899705e-03
 -5.6860501e-01   7.6635694e-04
 -3.4662716e-03   1.6063525e-03
 -3.9506178e-02   3.3450951e-03