 -3.5279183e+00   2.0043009e-03
 -1.0232539e+00   1.1979770e-03
 -1.1961907e+00   6.0481048e-04
 -9.8967516e-01   1.7286078e-03
  1.0330144e+00   8.9819143e-03
  7.1436286e-02   5.6511108e-03
 -1.8735231e+00   3.4575658e-03
 -7.7923155e-01   3.7616584e-03
  4.9952090e-02   5.2730287e-03
 -6.6173501e-02   1.7864235e-03
  2.1364226e+00   1.1460145e-02
 -1.4507766e-01   6.8999999e-03
  5.1154500e-01   2.1850511e-02
  4.0374126e-02   6.1178766e-03
  2.4858797e+00   3.4269013e-03
 -8.2974792e-02   2.1898074e-02
  4.8148155e-01   1.2723047e-03
  2.3039722e-01   1.9911878e-02
  2.3402202e+00   2.0243345e-04
  1.3301449e+00   1.8105344e-03
  2.4342532e+00   2.8325780e-03
  7.9239625e-03   3.6990875e-03
  8.7807232e-01   1.3815199e-02
 -1.4154434e+00   2.3406234e-03
  7.7768975e-01   7.5493963e-03
 -4.9859911e-02   4.4026790e-04
  1.5862790e-01   1.0489782e-02
 -7.5986844e-01   1.6630409e-02
 -2.1257508e+00   4.9598874e-03
  7.4551558e-01   1.7419882e-03
 -4.7811270e-01   6.9066502e-02
 -8.3063766e-02   2.3926629e-02
 -4.6670418e-02   6.3841087e-03
  2.4517737e-01   4.7154026e-03
  7.1144485e-01   3.2299790e-03
  2.3218968e+00   1.1472796e-02
 -2.0316391e+00   4.8667253e-03
  2.7677557e-01   2.2263022e-03
 -2.1561023e-02   2.8138373e-03
  8.8059321e-02   2.3237348e-02
  8.0538206e-02   2.3319503e-02
  8.0384858e-02   1.2524071e-02
  6.8844527e-02   2.2150308e-02
  1.9462357e-01   3.5865963e-02
 -1.2039351e-02   2.0074308e-02
 -1.2653412e+00   4.4969693e-03
 -1.7405449e+00   1.4208606e-03
 -3.1441271e-02   5.0676320e-02
  6.7463964e-02   9.8182522e-03
 -4.6333134e-01   1.4697252e-02
 -4.6673957e-01   5.8075902e-03
 -2.3951958e-01   1.5613715e-02
 -1.2783688e-01   7.1928664e-03
 -1.0191568e+00   1.0644052e-02
  1.9496723e-01   3.3086829e-02
  1.6984435e-02   1.1696126e-02
 -1.7290909e+00   1.9621199e-03
  3.7954599e-02   4.1213576e-02
 -5.3304648e-01   3.4307532e-02
 -4.4005454e-01   4.7762625e-02
  3.0699173e-01   2.5997216e-02
 -2.4380429e-02   3.5125047e-02
  2.2671342e-01   7.6536670e-02
  1.6171674e-01   1.8503787e-02
  6.5690935e-01   1.8714697e-03
 -2.3490560e-01   5.5059087e-02
 -1.3009569e-01   1.1591789e-02
  5.1118046e-01   1.8100396e-02
 -3.5148147e-02   6.2906399e-02
 -2.1602724e-01   3.9587893e-02
 -2.4465623e-01   1.4478399e-02
  3.6115527e-02   6.1176468e-02
  1.1061028e-01   4.3524686e-02
 -6.4569384e-02   4.6849758e-03
 -4.7255130e-03   8.2166111e-03
  4.2652316e-02   2.1424809e-02
 -8.0252230e-01   1.5522919e-03
 -4.0992945e-02   2.3146490e-02
  2.6263118e-02   6.7498856e-03
 -6.9400765e-02   1.5203426e-02
  1.3713624e-01   2.6688654e-02
 -1.8673648e-01   2.3522710e-02
  1.6975008e-01   2.9866172e-02
  1.5296613e-01   2.8783161e-02
 -1.2525639e-01   6.4146981e-02
  4.4189736e-01   4.6378031e-02
  3.6784772e-02   5.9029579e-02
 -7.5274535e-02   4.9155843e-02
  8.2707852e-03   1.7949369e-02
  3.7917942e-01   4.0657785e-02
  2.1677546e-01   4.9724963e-02
 -8.2782015e-02   3.0023832e-02
 -2.7586063e-02   2.6649263e-02
 -5.3134855e-02   2.9379839e-02
 -2.1582643e-02   6.7285195e-02
  4.5873672e-02   1.8413529e-02
 -7.6690602e-01   7.9734786e-04
 -7.4122411e-01   1.0601894e-03
  6.1184341e-01   2.1040076e-03
  1.8285600e+00   4.2386379e-04
 -4.4567546e-01   3.0283362e-03
  1.3849168e+00   2.8042216e-03
 -1.2847461e-01   4.3329471e-03
 -9.5929243e-02   6.2809838e-04
  1.9698758e-01   2.9082911e-03
  1.2843256e-01   6.0318182e-03
 -2.6349585e+00   3.2597466e-03
 -2.2445342e-01   2.8838802e-03
  4.4501406e-01   8.7445468e-04
 -2.3177593e+00   5.7904300e-04
 -1.9683141e-01   1.3438112e-03
 -9.6455592e-01   9.2430869e-03
  2.9614627e-01   7.3419223e-03
 -2.6598144e-01   1.3888148e-02
 -7.0894188e-01   7.4361556e-04
 -7.6974720e-01   1.2303224e-03
 -1.6537499e+00   4.0994510e-03
  1.6026536e+00   7.5761555e-04
  1.1097062e+00   3.6735709e-03
  9.9892199e-02   6.1928190e-04
  1.1615634e+00   5.0704652e-03
  3.0659068e-01   7.1174325e-03
 -7.2399803e-02   1.0601726e-02
 -5.1070511e-02   1.2396666e-02
 -2.6330466e+00   5.7808701e-03
  3.7128711e-01   6.5520089e-03
  1.1755687e-01   2.6128745e-02
 -1.6729879e+00   1.7377851e-03
 -2.0891871e+00   1.2394092e-03
  4.3192768e-01   1.1535727e-03
 -1.0167437e+00   4.1991305e-03
 -6.8887532e-01   5.0210312e-04
  1.0497668e-02   7.3059881e-04
  1.2932801e+00   1.2792035e-03
  1.2187833e+00   2.2141999e-03
 -2.6216069e-01   6.1255428e-03
 -3.0910337e-01   1.0737751e-03
 -2.9225678e+00   1.2031550e-03
  3.7407238e+00   4.9949633e-03
 -1.5679671e+00   1.3765098e-03
  6.3812727e-01   3.0428732e-03
 -1.2573974e+00   1.0461834e-03
  2.4629300e+00   1.4879404e-03
  2.9569006e-01   8.1834001e-03
 -5.0835651e-01   6.4119487e-04
 -6.8071023e-02   1.1537938e-03
 -2.1688135e-01   3.4260057e-04
  3.0123708e-01   5.7763368e-04
  3.8446715e-01   3.8279165e-03
 -7.7824342e-01   2.1801030e-03
 -9.5949340e-01   3.6600390e-03
  3.3328384e-01   1.0065306e-03
 -9.8891866e-01   5.5607725e-03
  1.1766859e+00   6.6507043e-04
  3.0050409e+00   2.4548825e-04
 -5.2774519e-01   2.3825964e-02
 -1.3518633e+00   1.2563029e-02
  8.0947071e-02   3.1211639e-03
 -2.7635241e-01   1.3958062e-02
 -2.0561616e-01   1.5020407e-02
 -9.8570895e-01   3.0098855e-03
 -2.4856550e-01   1.5719362e-02
  3.5788935e-01   1.2560142e-02
 -2.0256265e-01   3.1454808e-03
 -2.1693861e+00   7.3576905e-04
 -7.2051138e-02   2.2181356e-02
  5.4023571e-02   5.9427647e-03
  1.9301083e-03   2.2912433e-02
  3.1515193e-01   3.2595694e-02
 -7.2493356e-01   5.9753205e-03
 -3.0350238e-01   1.1069750e-02
 -4.7581546e-02   9.9513326e-03
 -4.4400653e-01   6.4078122e-02
 -5.4679334e-01   1.7357059e-02
  7.3323645e-02   1.8204100e-02
  1.8294331e-01   7.2983461e-03
  4.3002215e-01   1.3331114e-02
 -3.3761688e-02   9.4592338e-03
 -1.4824881e-03   2.8109169e-03
  2.9813328e-01   1.8226925e-02
 -1.5390775e-01   1.6329637e-02
 -2.5627738e-01   2.0293755e-02
 -4.9851391e-02   1.4977413e-02
 -1.6019335e-01   1.6791394e-02
  3.8383906e-03   3.7839193e-02
  2.9822987e-02   9.3959225e-03
 -4.5331538e-02   3.2574505e-02
 -2.3078563e-02   3.6951721e-02
  1.6949698e-02   5.6575794e-02
  3.1903669e-01   8.8672414e-03
  2.1220130e-01   3.6318947e-02
  1.6438484e-01   4.2212285e-02
 -1.3233316e-01   1.7122898e-02
 -9.1035374e-02   1.9434543e-02
  1.3563423e-01   9.9974237e-03
  1.0055090e-01   1.2118560e-02
 -8.3687734e-03   1.8251922e-02
 -4.7879380e-01   1.1765180e-02
  5.0377244e-01   1.2637036e-02
  4.1566774e-01   1.9284580e-03
  1.3272287e-01   1.4561134e-02
 -5.6699626e-02   1.1567932e-02
  1.1608141e-01   1.4954831e-02
  1.9232608e-02   6.0997703e-03
  1.9326134e-01   3.7085198e-02
  1.2862059e-01   2.5034877e-02
 -4.9925417e-02   2.1865729e-02
 -1.2016390e-02   1.9058364e-02
  3.0859485e-01   2.5832865e-02
 -2.6657921e-01   3.1920485e-02
 -4.5142204e-01   6.6165598e-03
 -7.4705064e-02   2.4767816e-02
  1.1830619e-01   2.2507163e-02
  3.1649038e-02   1.2193455e-02
  4.0821701e-02   1.7312242e-02
 -1.7811038e-01   8.4893359e-03
  4.2266268e-01   1.3342913e-02
 -2.0300451e-01   1.8868284e-02
 -2.3753019e-01   2.0397311e-02
 -1.0396975e-01   4.4608619e-02
  3.6105856e-01   1.9303357e-02
  5.6944543e-01   8.4138047e-03
  1.3709866e-01   3.2226294e-02
 -4.2378947e-01   8.7610446e-03
  1.1378276e+00   1.8874358e-03
 -4.0960357e-01   8.7766623e-04
 -1.7626736e-01   3.5597140e-03
  5.2699327e-02   2.6470418e-03
 -1.0711660e+00   5.6383421e-04
 -1.1158301e-01   2.7940329e-03
 -2.4436384e-01   1.9836659e-03
 -8.0281997e-01   2.1556602e-03
 -3.7353609e-02   4.1201450e-03
  1.9232012e+00   3.9777244e-03
  1.0081992e+00   9.2088722e-04
 -8.0832189e-01   6.5752710e-03
 -6.1555338e-01   7.9659475e-03
  1.1893908e+00   1.2083119e-03
 -2.8026664e-01   2.6516914e-03
  5.1629591e-01   1.0798381e-02
 -3.8845319e-02   3.0741959e-03
 -1.7657237e-01   2.1110801e-03
 -2.6810908e-01   1.5190039e-03
  1.3850152e+00   4.6680430e-03
  2.1363807e-01   6.8871938e-03
 -2.1670527e+00   3.3985099e-03
 -2.1109448e-01   1.7112065e-02
  9.2250830e-01   2.8584269e-03
  1.3523486e+00   4.9417727e-03
 -2.7916884e-02   3.3120508e-03
 -8.2217045e-02   1.1604319e-02
 -2.5282091e-01   2.7512785e-02
  9.8744273e-01   8.6332131e-03
 -3.9445031e-01   1.0414411e-02
  8.2209945e-02   6.1564948e-02
 -7.7152677e-02   1.2968489e-02
 -1.3555579e-02   2.4017733e-02
  2.9272282e-01   1.0274610e-02
 -1.0590736e-01   2.5822246e-02
 -1.1255685e-01   1.0668345e-02
  1.1014441e-01   2.1176124e-02
  8.1063978e-02   5.8378880e-03
  4.8338729e-01   5.9940410e-03
  9.1167614e-02   7.7435495e-03
 -1.1772102e-02   1.6597593e-02
  3.0641500e-02   1.6912756e-02
 -1.6578689e-01   4.4070855e-02
 -3.1760991e-02   1.4395698e-02
  8.9851487e-03   1.8383170e-02
 -5.6621847e-03   8.8136122e-03
  2.1404656e-02   1.6623702e-02
  3.5937580e-01   2.4915153e-02
  3.3487216e-02   1.2425496e-02
 -1.5415116e-01   2.1641588e-02
  1.4056854e-01   5.5868910e-03
  6.5452312e-03   1.7472887e-02
  2.3576646e-01   4.5162952e-03
 -2.5069362e-01   2.7720362e-02
  4.8367947e-01   2.5754379e-02
  6.3098334e-02   1.0450669e-02
  3.4748446e-02   1.6577203e-02
 -2.8222802e-01   3.3331923e-02
  2.4100116e-02   2.2468373e-02
  4.7004569e-01   5.4418808e-03
 -4.7117747e-02   1.6176701e-02
  2.5623375e-01   2.6356939e-02
  6.3057043e-02   1.2733181e-02
  5.6342501e-02   1.3447733e-02
  1.3326271e+00   2.6038012e-03
  2.7841118e-01   5.0454568e-03
  1.5227301e+00   4.1727875e-03
 -1.6915380e+00   9.2847942e-04
 -9.9855560e-01   4.8997849e-03
 -1.1110710e+00   2.9480211e-03
  4.8201305e-01   5.2648713e-03
 -6.0882330e-01   1.0694137e-02
 -6.3563444e-02   6.0666320e-03
  9.9747676e-01   3.1124644e-03
 -5.5398468e-02   6.2942631e-03
 -9.0706164e-01   6.7627681e-03
  5.0177461e-01   8.9701498e-03
 -4.3114451e-01   4.5704488e-03
  2.0856445e+00   8.0570383e-03
 -3.4368098e-01   5.8503496e-03
 -9.4657528e-01   9.9079572e-03
 -1.4923667e+00   4.0427847e-03
 -1.0974919e+00   1.5925027e-03
  1.0675325e-03   8.5427659e-03
 -6.6348511e-01   5.4825018e-03
 -2.6446366e-01   5.5371788e-03
 -4.7066009e-01   6.3454979e-03
 -2.2768192e-01   6.5570059e-03
  1.3527356e-01   1.9607784e-03
  4.2213240e-01   1.1323577e-02
  6.2718225e-01   6.4683007e-03
  5.0208874e-02   2.5521822e-02
 -7.5317544e-01   9.1688903e-03
  1.2432287e-01   8.1144208e-03
  2.1565497e-02   3.3261057e-02
 -3.1175962e-01   2.6199980e-02
 -3.4040385e-01   7.2823870e-03
  3.1497243e-01   2.8686547e-03
 -2.9379353e-01   3.9451150e-03
  2.1957749e-01   2.6299439e-03
  5.5247728e-02   3.8104015e-03
 -7.3731631e-01   5.5486211e-03
 -1.9931209e-01   8.4448811e-03
  6.1874628e-01   4.2404379e-03
 -1.4739152e-02   1.2633874e-02
 -4.5925403e-01   2.6324361e-03
 -3.8457063e-01   6.2953904e-03
  2.7690002e-01   5.9373635e-03
 -1.3741785e-01   1.4061179e-02
  1.3080432e-01   2.3326974e-03
  9.8972696e-01   2.4045105e-03
  4.2877370e-01   2.1967577e-02
  6.9764431e-04   5.9623923e-03
  8.9486025e-02   4.3780454e-03
  4.4892382e-02   1.1475635e-03
 -1.0840523e-01   3.3828763e-03
  3.5253021e-01   9.8520694e-03
  5.0339568e-01   6.3225655e-03
  6.6082194e-02   5.4619382e-03
 -1.5070347e-01   6.5325322e-03
  3.4396839e-01   2.7689631e-03
 -3.6509614e-02   1.4617356e-02
 -6.2011862e-01   1.5437591e-02
  5.1526137e-02   2.6361702e-02
 -3.2663783e-01   4.1925577e-03
  1.1822900e-01   7.1653756e-03
 -3.0730483e-03   4.4517186e-02
 -3.8639921e-01   2.2871979e-02
  8.0609655e-01   1.7246993e-02
  6.9770515e-02   6.3751927e-03
  4.5228836e-01   2.7552000e-03
  9.8697412e-01   4.8436108e-03
  1.6806369e-01   8.6013991e-03
  3.0273119e-01   2.9929837e-03
 -3.2710105e-01   4.3523326e-03
 -3.0766121e-01   6.9493605e-03
 -3.6519152e-01   6.9564418e-03
  2.0192791e-02   1.4224865e-02
 -9.3394101e-01   2.5484929e-02
 -2.3541024e-02   4.3694447e-03
  2.8747475e-01   3.4376405e-02
 -7.9690295e-01   5.4440829e-03
 -1.6992364e-02   1.1646639e-02
 -1.1015949e-01   1.1732507e-02
  4.7040924e-02   1.1580748e-02
 -2.0528129e-01   2.5313510e-02
 -3.3196360e-02   8.5026922e-04
  1.1996540e-01   1.2428725e-02
  1.7316481e-01   8.1585739e-03
 -2.3931506e+00   3.8226729e-03
 -8.1193888e-01   1.7338816e-02
 -4.6523461e-01   1.0409231e-02
 -1.0351890e+00   6.0905120e-03
 -1.2960333e-01   2.6238609e-02
  5.8197342e-02   2.3446390e-02
  1.0382514e-01   1.3436696e-02
  2.4680769e-01   3.0278742e-02
  7.1988985e-02   5.2817375e-03
  1.3495524e-01   3.3226531e-02
  6.0530119e-02   2.3714159e-02
  2.4737094e-03   1.3093628e-02
 -3.7019789e-02   8.7334886e-03
  1.8030696e-01   1.1817226e-02
  1.2282772e-01   1.4085549e-02
  4.6750867e-01   3.6185283e-02
 -1.8863885e-01   8.0059841e-03
 -4.5000628e-02   1.2844766e-02
  1.6523430e-01   5.4146241e-02
  3.1360921e-01   1.5289590e-02
 -2.0578569e-01   1.8161273e-02
 -3.9598193e-02   1.1922277e-02
 -6.8268649e-02   7.9280566e-03
 -8.1003504e-03   5.9319656e-02
  4.1774642e-01   1.5406451e-02
 -1.7002024e-01   1.4718207e-02
  1.9914340e-02   2.7181642e-02
 -1.0890545e-01   8.3085094e-03
  4.9703595e-01   8.5061071e-03
  3.5516024e-02   3.2784813e-03
 -1.6821793e-01   3.9135300e-02
 -4.9187934e-01   4.3286989e-03
 -4.1189027e-01   1.3839170e-02
 -3.2625356e-01   1.5800726e-02
  5.0983781e-01   1.7681586e-02
 -3.6970660e-01   8.6299749e-03
 -2.7681670e-01   1.7744048e-02
 -5.1729882e-01   3.5783768e-02
 -3.2006767e-01   1.7857848e-02
 -5.1275301e-01   1.3057279e-02
 -7.4280071e-01   4.6692598e-03
  1.1947573e-01   2.4914328e-02
  2.6659378e-01   2.7181508e-02
 -2.2523302e-01   7.1120411e-03
 -5.7725966e-01   3.0884775e-03
 -6.2395684e-02   1.8670977e-03
  2.8974971e-02   1.1473682e-02
 -1.1940662e+00   6.2657977e-03
 -4.4596970e-01   1.1577109e-02
 -5.1186937e-01   7.3142517e-03
  6.2720478e-01   9.4138552e-03
 -5.1259845e-01   2.0856945e-02
  3.7902755e-01   1.0896786e-02
 -3.1527698e-01   1.6465873e-02
 -9.4912380e-02   1.9322960e-02
  8.6107500e-02   3.8181336e-03
  1.2849963e-01   1.5951065e-02
 -1.3133919e+00   4.6430895e-04
  3.9698142e-01   4.5303572e-03
 -7.6188493e-01   9.0874974e-03
 -4.1482356e-01   3.8769236e-03
 -3.3236569e-01   1.5196252e-03
  1.5000062e-01   4.7564278e-03
 -1.3971828e+00   2.7316732e-02
 -3.3422977e-01   1.5700228e-03
 -5.7952285e-01   6.8725538e-03
  2.2962928e+00   5.1095709e-03
 -1.7541911e-01   1.8507009e-02
 -8.2935162e-02   2.0922199e-02
  1.2758841e-02   1.9462360e-02
  6.7136295e-02   3.7154771e-02
 -1.4398831e-01   1.4743040e-02
 -9.2502192e-02   1.1078614e-02
  2.3726982e-01   2.9696147e-03
 -2.8954333e-01   1.7689960e-02
 -4.9219897e-01   2.7290338e-03
 -5.1068906e-03   4.5237085e-04
  2.2802205e-01   1.0179045e-03
  2.0662352e-01   2.2204015e-03
 -1.6609834e+00   1.5461401e-03
  2.0381513e+00   1.0824609e-03
  1.9529289e+00   4.3945079e-04
 -1.1686574e+00   1.6095770e-03
 -1.0443558e+00   1.5561598e-03
 -5.0692928e-01   1.5726913e-03
 -1.1243884e-01   4.2191348e-03
  1.3245580e+00   3.3465668e-03
  1.2253191e+00   3.3073528e-03
  1.2455560e-01   1.2226636e-03
 -1.2000610e+00   2.0817651e-03
 -1.9468151e+00   5.8660717e-03
 -3.9467373e-01   7.6196680e-04
 -1.0593544e+00   2.5264460e-03
  9.9665833e-01   7.3034345e-04
  2.6013651e+00   1.0935953e-03
 -7.7722943e-01   2.0519996e-03
 -1.2320757e+00   9.7487960e-04
 -4.1972113e-01   2.9377125e-03
  3.0546966e-01   7.1890454e-04
  3.0984589e-01   1.1239567e-04
 -1.1430343e+00   2.8661431e-03
  3.8905668e-01   1.4828781e-04
  7.1537264e-02   1.2035606e-02
  2.3657587e+00   6.1736298e-03
  4.9547961e-01   6.0548130e-03
  5.4103827e-01   3.5746858e-02
  1.0013196e-01   6.6323169e-03
  2.8335340e-02   9.2501370e-03
 -3.6784577e-01   4.1889916e-03
  1.0832717e-02   4.1362350e-03
  1.4833657e-01   9.3645584e-03
 -1.3054493e-01   1.4306832e-02
  1.1913230e-01   5.5999039e-03
 -5.1946834e-02   3.0118031e-03
  7.2336063e-02   1.4317621e-02
 -2.5324759e-01   2.0278599e-02
 -7.6045021e-02   2.1217069e-02
 -2.5210357e-01   1.5617012e-02
  1.3701919e-01   9.0060290e-03
 -1.8510492e-01   1.0243161e-02
  7.1382368e-01   1.1999221e-02
  4.6828870e-02   6.6390331e-03
 -5.8461040e-01   1.3573831e-02
  7.3040712e-01   4.6627573e-03
  9.0620905e-02   1.5647048e-02
 -6.5894641e-02   2.8506995e-03
 -6.2576786e-02   1.4628950e-02
 -1.6606390e-02   3.1465662e-03
 -3.9636698e-02   5.3356704e-03
  1.5603016e-01   2.6292510e-03
 -1.9570532e+00   1.0442944e-02
  3.2640454e-01   1.1865704e-02
 -5.3799164e-02   2.4145659e-02
  1.1651572e-02   9.4435224e-03
 -5.4625225e-01   1.2444520e-03
  3.3969453e-01   7.7016675e-03
 -1.2243184e-01   3.4611005e-02
  7.5188316e-02   3.8351320e-02
 -6.4711355e-02   2.0884126e-02
 -9.3249008e-03   1.3965087e-03
  4.8734817e-01   1.7467445e-03
  3.3021995e-01   1.3898711e-03
  8.7436199e-01   5.5656512e-04
  4.5601088e-01   7.9284245e-03
 -2.0570230e+00   1.2744211e-03
 -5.7083702e-01   1.0494289e-03
  9.4141823e-01   1.5959869e-03
 -1.1131570e-01   2.3896256e-03
  4.4050565e-01   3.0349514e-03
 -4.6700022e-01   4.9409512e-03
  2.7438042e-01   8.3434135e-03
  2.6430001e+00   6.6688820e-03
  1.7023191e+00   2.5217300e-03
 -3.4386134e-01   1.7972740e-03
  2.3420098e-01   1.6577754e-03
  2.9833072e-01   2.7160714e-03
  3.9090779e-01   3.4586515e-03
 -9.4801480e-01   2.1924332e-03
 -6.5872389e-01   2.2009856e-03
  6.2116188e-01   1.1903072e-02
 -1.4140084e+00   1.8310207e-03
  6.3478380e-02   4.8467019e-03
  1.3141118e+00   2.4410228e-03
  8.4376186e-01   4.7256239e-03
  4.3001622e-02   5.0312360e-03
  2.5784287e-01   4.4764872e-03
  1.6181870e-01   2.1533675e-02
 -1.5813184e-01   3.2300199e-03
 -1.1627128e-01   4.2031952e-03
  9.1344208e-02   7.8923889e-03
 -5.8091812e-02   5.6943987e-03
 -1.5930079e+00   7.7905844e-04
  1.3980737e-01   3.2997824e-04
 -6.3677436e-01   1.0727930e-03
  1.5401218e+00   1.8768976e-03
  3.0720976e-01   8.3972915e-04
 -6.1180443e-01   1.2870583e-03
  6.7030579e-01   9.8245370e-04
  9.1062278e-01   1.3187007e-03
  5.3270418e-02   2.1574090e-03
 -7.1570021e-01   2.9496327e-03
 -3.4763613e-01   1.7249895e-03
  1.1959332e+00   3.5421629e-03
 -6.7492642e-02   1.1803200e-02
 -7.0922755e-02   2.1919704e-03
  1.3778903e-01   2.4804848e-03
  1.9122164e-01   5.7069683e-03
 -1.1975800e-01   2.1865133e-03
  6.0178334e-01   3.6415455e-03
 -3.6969128e-01   6.0091203e-04
  3.4209173e+00   3.6747768e-03
  9.5069879e-01   8.5591348e-03
 -5.5420095e-01   1.0722510e-03
  2.2367690e+00   3.7319215e-03
  1.8305315e+00   5.4954301e-04
  7.4830824e-01   2.2738993e-03
 -3.8775057e-02   7.7523850e-04
  1.6054164e+00   2.7726714e-03
 -2.1797393e-01   2.5668584e-02
 -5.8991748e-01   3.5180079e-03
 -4.2476639e-02   1.2894003e-02
 -3.4609267e-01   5.4240003e-02
  4.6365187e-01   3.4699235e-03
  6.4666057e-01   6.0770577e-03
 -3.8933158e-02   1.7928002e-02
 -2.1541592e-02   1.0678583e-02
 -5.9134163e-02   5.7900390e-03
 -3.8118612e-02   1.4787714e-02
  1.8533103e-02   7.3812972e-03
 -4.2981505e-02   7.1478207e-03
 -3.8886780e-01   1.4777489e-02
  1.3447362e-01   1.3549163e-02
 -8.4365559e-01   1.8171372e-02
 -1.7649226e-01   7.6380181e-03
 -1.2475353e-01   8.3117168e-03
  3.0464841e-02   6.1445641e-03
 -7.5544104e-02   6.4261872e-03
 -1.4256487e-02   1.2280577e-02
 -8.4906854e-02   1.6529143e-02
  1.7903976e+00   5.4709933e-04
 -1.9155574e-03   1.3868029e-02
  2.7918613e-01   5.7888050e-03
  7.4362028e-01   1.7993486e-02
 -5.4395276e-01   1.5859306e-02
  1.8144184e-01   2.9141100e-03
 -2.0421654e-01   2.3429453e-02
 -4.8350140e-01   5.5145207e-03
  1.8969795e-01   1.4767459e-02
 -2.0112744e-01   1.8140176e-02
  2.7124479e-01   1.1789349e-02
 -2.7563930e-01   1.6051952e-02
  2.5349909e-01   2.0855283e-02
 -2.7678474e-03   6.7928351e-02
  1.1512220e-01   3.5089921e-02
  6.7670494e-02   3.0087400e-02
 -9.4044097e-02   2.8258516e-03
 -1.0493971e-01   1.3196182e-02
 -4.4264373e-01   3.8785529e-03
 -2.0726466e-01   8.6876592e-03
  2.9173551e-02   2.8411722e-02
 -3.4169325e-01   3.0950003e-03
  2.1719838e-02   1.7576683e-02
  1.2058699e+00   7.9866601e-03
  7.2535411e-02   2.2568103e-02
 -4.7060457e-01   6.0803425e-03
 -4.0603244e-01   1.1469522e-02
 -1.2426274e-01   4.4269521e-02
 -1.7750663e-01   1.4492057e-02
 -1.5210436e-01   2.0203924e-02
 -3.7565205e-01   3.9745378e-03
 -3.0803174e-01   3.4135796e-02
  2.0749593e-01   2.6857812e-02
 -2.4384186e-01   3.9919759e-03
  4.3532661e-01   2.6048259e-03
 -5.6862053e-02   1.6490530e-02
 -2.3000298e-01   7.7837743e-03
  2.4434845e+00   4.9452521e-03
 -5.5592231e-02   2.0827617e-02
  1.5702732e-01   8.5783815e-03
  1.4686258e-01   6.2896674e-03
  2.4096441e-02   5.1866073e-02
  5.0974827e-02   1.6919954e-02
 -1.2194883e-01   5.3336587e-02
 -4.2711865e-02   1.3980334e-02
  1.6512146e-02   6.4254470e-02
 -7.0374414e-02   5.4942418e-02
 -1.3778786e-01   1.3683484e-02
  9.0950064e-02   2.3374487e-02
 -1.4746749e-01   4.1403733e-02
  1.6398682e-01   1.6764812e-02
  1.8310706e-01   3.0457310e-02
 -1.0398547e-01   7.4922792e-03
  1.8563262e-01   8.9845462e-03
 -1.7760177e-01   6.1729904e-02
 -1.0183600e-01   2.3238027e-02
  1.9737138e-01   1.8542530e-02
 -1.1589636e-01   4.8934486e-02
  1.0311110e-01   1.2066332e-02
 -3.4024850e-01   6.3027300e-02
  6.2977925e-02   3.3182684e-02
  7.0459783e-02   3.9317384e-02
  9.0030724e-01   1.4933562e-03
  5.6976390e-01   2.0808477e-02
  1.7023477e-01   9.6379174e-03
 -1.3713415e-01   5.1696800e-02
  1.1913681e-01   1.4075619e-02
  1.1989303e-01   1.0400642e-02
 -2.1914278e-01   2.2798792e-02
  4.5727119e-02   5.2467905e-02
  1.2315715e-01   1.8311471e-02
 -1.5631947e-03   4.1355226e-02
  3.3381110e-01   7.0756460e-03
 -1.1653782e-01   2.1664305e-02
  1.0517383e-01   5.8815282e-02
  3.1405598e-01   3.4972884e-02
 -1.6989413e-01   3.5630491e-02
  1.0962428e-01   1.7766131e-02
 -4.3259796e-02   1.9847130e-02
 -7.5172865e-01   3.0301960e-02
  3.8579255e-02   4.1059256e-03
  5.1919058e-02   5.8213659e-03
  2.2958620e-01   8.1093452e-04
 -1.4963787e+00   1.8354998e-03
  4.5799944e-01   1.0406309e-03
 -4.2172747e+00   2.2173473e-03
  2.6541364e-01   6.7105736e-03
 -6.4266604e-01   5.2975840e-03
 -1.8954556e+00   4.4371653e-03
  3.0439577e-01   6.0149259e-03
  2.2465935e+00   4.7760751e-04
  6.7162085e-01   8.9568058e-03
 -1.5856745e+00   9.6813655e-03
  1.3152114e-01   5.7553831e-03
  1.2317678e+00   1.1440810e-03
  1.1041491e+00   2.5426755e-02
 -6.8845886e-01   1.6047427e-03
  7.8463316e-02   1.9105392e-03
  1.9229469e+00   6.6941301e-04
  1.8112406e-01   4.6596490e-03
  1.0162114e+00   3.0199336e-03
  1.4902712e-01   3.7426380e-03
 -4.0394720e-01   6.2254346e-03
  6.5020442e-02   2.6337726e-03
 -8.0035830e-01   6.4136847e-03
  3.9404743e+00   2.7008500e-02
  4.1960040e-01   4.9240296e-03
  8.9999042e-02   1.8260870e-02
 -1.7626023e-02   3.3894232e-03
 -8.0088925e-01   7.4081635e-03
  2.5274405e-01   4.7176052e-03
  1.0378474e-01   5.8743190e-03
  1.0619421e+00   4.4653544e-04
 -1.5476427e+00   8.9426135e-04
  1.7987625e-01   1.9529145e-03
 -7.2462545e-03   2.0178303e-03
  6.0960466e-01   2.4365138e-03
  9.6424210e-01   6.9266849e-04
 -1.6692188e+00   1.1164136e-03
  1.0040662e-01   4.0315581e-03
 -6.0449272e-01   3.2005699e-03
  3.6413029e-01   2.3262973e-03
 -2.4089925e+00   1.5757617e-03
  1.6967772e+00   7.1696262e-04
  3.6272285e+00   9.1863214e-04
  2.4220523e-01   3.8795886e-04
 -6.2156880e-01   1.4990837e-03
 -1.8130947e+00   1.3083930e-02
  3.1857365e-01   2.6101919e-03
 -6.2838715e-01   5.8377027e-03
  1.1829095e+00   4.3636977e-04
 -3.7444234e-01   2.4556860e-03
 -3.2505472e+00   5.7635731e-03
 -5.0335575e-02   1.6441750e-03
 -2.1397917e+00   1.2491669e-03
 -6.9531195e-02   1.1391162e-03
  2.5652158e+00   3.2834816e-03
 -2.1286674e+00   4.9907221e-03
  2.3386362e+00   3.8285626e-03
  1.9855945e+00   9.2665628e-03
  6.9583482e-01   4.5537096e-03
 -7.3978551e-02   3.1438703e-03
  1.9120029e-01   4.3650068e-02
  1.9967604e+00   3.9300011e-03
  2.7326486e-01   3.8118828e-02
 -1.3933168e-01   1.5965441e-02
  9.0953544e-02   2.5965481e-03
 -4.8110332e-02   3.9648589e-02
 -5.9190694e-02   7.9400335e-03
 -3.4820143e-02   2.1201648e-02
 -4.4679737e-01   2.7649369e-02
 -3.0025703e-01   3.6818616e-02
  3.1731126e-01   3.3056654e-02
  8.0647565e-02   6.9034053e-03
  4.1665089e-01   4.1785348e-02
  1.3271026e-01   2.0618867e-02
 -5.5001907e-02   3.8690120e-02
  1.7436284e-01   2.2049634e-02
  2.0351297e-01   4.6349838e-02
  6.9219254e-02   4.6941668e-02
  2.5154793e-01   2.4875199e-02
 -3.0408427e-02   1.0184138e-02
  9.6911967e-02   8.4989285e-03
 -1.0168269e-01   4.1852534e-02
 -2.5665358e-01   2.7906353e-02
  1.0024498e-01   1.1277320e-02
 -4.0647736e-01   3.1312991e-02
 -9.6076861e-02   2.8999329e-02
 -5.4400504e-02   4.3081284e-02
  2.0737702e-01   3.7908666e-02
 -6.3326168e-01   5.6458316e-03
  2.0706544e-02   3.6768913e-02
  8.4969357e-02   5.0865505e-02
  1.8960007e-01   1.2787587e-02
 -1.9648729e-01   4.7912538e-02
  6.8830287e-01   1.4861075e-02
  1.7014889e-02   1.4667490e-02
 -4.8342314e-01   1.9223575e-02
  2.1547540e-01   1.2684412e-02
 -1.5482472e-01   1.7001584e-02
  1.1686453e+00   1.0517717e-03
 -2.7703512e-01   9.4077009e-04
 -4.1324824e-02   1.4823910e-02
 -1.6240293e-01   1.4178638e-02
  1.7471831e-01   9.9694002e-03
 -4.6783948e-01   5.5007883e-03
 -5.2378923e-01   8.4030172e-03
  1.1963043e-02   1.4649701e-02
  4.1362895e-03   1.2960610e-02
  1.0748180e+00   1.6623393e-02
  4.8999837e-01   1.2302073e-02
  1.5808462e+00   4.3653999e-03
 -2.0174894e-02   5.9290701e-03
 -1.5344808e-01   2.2623258e-02
  1.1664016e-02   3.0286652e-03
  7.7826530e-02   2.9497948e-02
 -4.2049728e-02   2.5829908e-02
 -1.1875918e-02   1.3945907e-02
 -8.6045492e-01   1.6601309e-02
 -5.1652348e-01   2.7479860e-03
  2.5761127e-01   1.7965334e-02
 -1.5635252e-02   6.6052228e-03
  9.4772294e-02   3.2775372e-02
  3.6375216e-01   8.2941562e-02
  2.6995006e-01   1.5916904e-02
  3.4831546e-02   2.0257412e-02
 -2.6350498e-01   4.1975830e-02
  7.4835300e-02   2.0808844e-02
 -2.1132557e+00   8.5540414e-03
 -7.4023592e-01   2.0913451e-03
  1.7146399e+00   1.4630097e-03
 -1.9590338e-01   3.9296886e-03
 -2.4092543e+00   7.9184445e-03
 -7.4655050e-01   1.2984491e-03
 -4.4095707e+00   1.7049403e-03
  3.7485632e-01   5.0747548e-03
  8.9135244e-02   6.1003021e-03
 -5.4962057e-01   8.6118579e-03
  2.2307292e-01   5.7657426e-03
 -1.2482632e+00   5.4575433e-03
 -1.3956092e-01   1.7181253e-02
 -4.4739041e+00   3.3705691e-03
 -1.9166662e-01   2.7407371e-03
  8.9760739e-01   1.1058310e-02
 -3.3134457e-01   4.0184422e-03
 -5.8893271e-02   2.6696050e-03
 -1.7451307e-01   1.0710302e-03
 -2.4773353e-01   9.4152577e-03
  5.5476832e-01   2.3789469e-03
 -1.7316765e+00   6.9237617e-03
  5.6755990e-01   1.4153833e-02
 -1.8697392e+00   4.6785916e-03
 -1.2721448e-01   1.2725549e-03
  2.4955173e+00   1.2882554e-02
  9.6928021e-03   1.2950446e-03
 -1.0803039e-01   5.8697877e-03
  1.1417615e+00   1.4446861e-03
  2.5807235e-01   3.1141648e-02
 -2.4845213e-01   4.4006195e-02
 -5.6509130e-02   1.8947566e-02
  1.7973356e-01   1.2176569e-02
  2.9701598e-02   7.5933877e-03
 -2.4166154e-02   1.6245238e-02
  2.2444266e-01   1.3566017e-02
  1.0161076e-01   3.2957431e-03
  2.2051738e-01   2.6434712e-02
  3.1513322e-02   6.4083831e-03
  9.0493523e-02   1.2647036e-02
  2.2668906e-02   2.3165140e-02
 -1.2229441e-01   4.0663268e-02
  1.3156839e-01   2.1482168e-02
  1.0634419e-01   2.7415587e-02
 -2.8001355e-02   3.6862005e-02
 -3.2318622e-01   1.4964448e-02
  3.8577270e-02   5.9417975e-03
 -5.9085462e-02   1.2972813e-02
 -2.7430519e-02   2.3842059e-02
 -3.6699645e-02   2.3960348e-02
  2.2168113e-01   8.3398120e-03
  2.5784418e-02   9.8383147e-03
 -3.0612137e-02   1.4785372e-02
 -1.7177910e-02   9.0280408e-03
  3.7377402e-01   3.9602470e-02
 -3.3490937e-02   2.9401749e-02
  1.4560255e-01   2.1469746e-02
 -1.1768186e+00   7.4928254e-03
  5.4298234e-01   1.7442908e-02
 -2.7725756e-02   2.1961829e-02
  1.2929656e-02   1.0637343e-02
  4.5532328e-01   1.2973235e-02
  5.6361027e-02   3.2893982e-02
 -1.6339135e-01   4.8441920e-02
 -9.8335338e-01   3.0370094e-03
 -9.8494452e-01   8.6429628e-04
  4.7485220e-01   2.0911931e-03
  2.4589064e+00   3.5065180e-03
 -1.4678340e+00   9.1013676e-03
  2.6112397e+00   6.0612522e-04
  3.4203739e+00   3.1580625e-03
 -4.4015515e-01   1.1221025e-02
 -5.4408383e-01   1.5385978e-02
 -4.1976891e-02   5.4714726e-03
 -2.6330838e-01   1.1502645e-02
  1.4818050e+00   8.1675835e-03
  1.6274734e+00   1.3279201e-02
  5.1842743e-01   1.3286708e-03
 -1.4237154e-01   6.0417172e-03
  1.0986974e+00   7.3531014e-03
  1.3015120e+00   7.2819353e-03
 -7.9464668e-01   1.1610757e-02
 -1.3552295e+00   1.4113609e-03
 -3.4982443e-01   6.0700509e-03
  7.2930211e-01   5.6978674e-03
 -1.1203421e+00   6.0517010e-03
  8.7989951e-03   2.8301895e-04
 -2.2905609e-03   9.7779545e-04
 -1.1786537e+00   7.8905160e-03
 -1.0067285e+00   7.3529049e-03
  6.1241694e-02   8.6335009e-03
 -7.5637281e-02   1.5149687e-02
  3.2831769e-02   1.5235837e-02
 -2.4077366e-01   2.0237947e-02
  5.8075291e-01   7.1174458e-02
 -9.9931695e-02   1.1261297e-02
 -1.9760603e-02   1.3960892e-02
 -7.8749663e-01   3.8711892e-03
 -7.9127336e-01   1.9430922e-03
  7.8471911e-01   8.1384452e-03
  5.9012300e-01   1.3922347e-03
 -2.7340767e-03   3.3213361e-03
  3.2255501e-01   9.2330044e-03
 -5.4193515e-01   5.6925620e-04
 -6.7292117e-02   1.7006679e-03
 -5.8524644e-01   5.8797575e-03
 -1.6228072e-02   1.0406572e-02
  4.4320184e-01   1.4389297e-02
 -5.8981046e-02   1.2776655e-02
  2.2653474e-02   6.2899436e-03
 -4.0214381e-01   2.7929025e-03
 -1.0287856e+00   9.7794933e-03
  1.4385438e-01   1.3981315e-02
 -2.4300441e-01   1.3846113e-02
 -2.7283795e-02   2.5530034e-03
 -8.3261594e-02   1.5598657e-02
 -1.3911539e-01   1.9770332e-02
  7.3376906e-01   5.9523145e-03
 -5.0873317e-02   4.8916750e-03
  2.7949208e-01   8.5738488e-03
 -1.4350523e-01   4.9530077e-03
 -8.4445946e-02   2.0915229e-02
 -2.3220071e-01   1.5513524e-02
 -2.2480780e-01   3.6431555e-02
  2.4749409e-02   1.5874207e-02
 -5.9070908e-02   2.0253714e-02
  4.2364988e-02   1.9142531e-02
  2.5597942e-01   1.4101844e-03
 -4.1017917e-01   1.9668993e-02
  4.9036480e-02   7.4756354e-02
  7.6660350e-02   2.9160688e-02
  3.8549475e-02   3.3126891e-02
  2.8929774e-02   4.1697450e-02
  3.9661810e-01   1.7280085e-02
 -1.5722689e-01   2.8081909e-02
 -6.7856051e-02   2.8898256e-02
  3.4718588e-02   6.1919320e-02