  8.4215514e-02   1.2428905e-03
  3.3267033e-01   9.6341531e-04
 -7.2930956e-01   5.7282258e-04
 -1.2776498e-01   2.6469232e-04
 -3.6419891e-02   6.2803889e-04
 -3.5091126e-01   1.6188504e-04
 -1.6763608e+00   2.1127641e-04
  1.8336056e-01   5.6680088e-04
 -5.4970258e-01   4.7811336e-04
 -1.8342917e-01   1.0598957e-03
  5.9570998e-01   1.0986831e-03
 -6.6747107e-02   1.6094636e-03
  2.2189431e-01   1.5546591e-03
 -3.6005586e-01   2.5549361e-03
  6.1389118e-02   2.7134379e-03
 -2.3713996e-01   2.6118555e-03
 -1.8896914e-01   5.9162942e-04
  2.2006932e-01   1.2128515e-03
  5.6828655e-02   4.6249940e-03
  1.8382005e-01   3.4660753e-04
  9.3139239e-02   1.2185394e-03
  7.5357527e-01   2.4880795e-03
 -5.4148018e-02   7.0519687e-04
 -1.9496180e-01   5.5102073e-04
  1.4817210e-01   1.2198030e-03
  1.4141934e-01   1.0127690e-04
  2.0736720e-01   1.6598973e-03
  2.2370705e-02   6.2647340e-04
 -3.7175570e-02   1.0545407e-02
  4.7993481e-02   3.0950157e-03
  2.8828345e-02   7.4968801e-04
  1.5105452e-01   9.3835993e-03
 -4.0734154e-01   1.2754762e-02
  2.3757480e-02   1.7359599e-02
 -5.4653022e-02   2.7686956e-03
  6.6162102e-02   4.5743017e-03
 -2.5129865e-03   5.8549712e-04
  5.1972293e-03   1.4238580e-03
  2.3137435e-02   1.6215175e-03
  5.7694554e-02   2.3854270e-03
  2.5083435e-01   1.1931232e-03
  4.0442307e-02   9.5247937e-04
 -7.4512191e-02   4.5810168e-04
 -3.5292059e-02   1.7697654e-03
  1.5774356e-02   1.9038167e-03
 -3.5494305e-02   5.2096345e-03
  6.3324869e-02   1.0142290e-03
 -4.2784768e-03   6.8978379e-03
 -7.2663561e-03   1.6720482e-03
 -7.8305058e-02   3.1859481e-03
 -1.7402075e-01   1.6645983e-02
  1.0854539e-02   1.6598310e-03
  3.7882559e-02   1.8800439e-02
 -1.0031991e-01   1.3218678e-03
  7.5611666e-02   2.3320797e-03
  6.0499366e-02   2.9032812e-03
 -3.9595924e-02   4.4258096e-04
 -9.9164210e-02   2.4163725e-03
  5.6070285e-03   3.1001300e-03
 -1.7489830e-02   1.5214760e-03
  4.2915780e-02   1.6744775e-03
  1.5551005e-01   1.0078759e-03
  4.4854518e-02   1.0684343e-02
  8.8024661e-03   5.1756175e-03
 -8.6895125e-03   5.6927465e-03
  1.6463227e-03   8.0657769e-03
 -3.3807550e-02   2.0112065e-03
 -9.7835604e-03   4.9473601e-03
 -1.1368860e-01   2.0280872e-03
  4.6354085e-03   1.8985706e-03
 -1.3752621e-02   3.8059924e-03
  7.2338156e-02   1.2519598e-03
  6.8508573e-02   2.8469120e-03
  1.4044651e-01   9.0905576e-04
 -6.8553686e-02   7.9691242e-03
  1.2541176e-02   2.8833365e-03
 -1.6602539e-02   3.3426429e-03
  1.0160190e-02   4.4606868e-03
  7.0445448e-02   2.5162115e-04
  4.4703297e-03   5.4992582e-03
 -6.9695331e-02   5.5525885e-03
  1.4016044e-01   1.2891248e-02
 -1.5940068e-02   2.8450375e-03
  1.0457436e-01   1.3528280e-03
 -8.5621430e-03   1.2321986e-03
  2.4229663e-03   4.0180031e-03
 -1.4426076e-02   2.2405190e-03
 -1.6798787e-02   5.1054102e-03
 -4.8697479e-02   8.3975494e-03
 -1.5231932e-02   4.8046825e-03
  1.8549320e-01   6.6685779e-03
 -3.1246254e-02   2.3906126e-03
  3.4446571e-02   3.9531244e-03
  1.0093314e-02   1.3025697e-02
 -1.0087785e-01   7.1312790e-03
 -7.3046312e-03   5.8110856e-04
  3.9839759e-02   1.0497426e-02
 -3.9118145e-02   8.1934771e-03
  6.5711075e-01   1.6645406e-03
 -1.9311118e-01   1.4484163e-02
  7.2640486e-02   9.8416600e-03
 -6.5285824e-02   6.0612853e-03
  1.2295336e-02   3.4090553e-03
  1.6238241e-01   7.6896808e-04
 -1.3864045e-01   2.3029905e-03
  2.2516912e-02   2.9639329e-03
 -1.3472658e-01   1.3851580e-03
  7.4908845e-02   3.0107787e-04
  1.0955496e+00   1.2623421e-03
  7.8164917e-01   2.4654388e-03
 -8.4376261e-02   9.7213819e-04
  5.3412858e-02   1.6987430e-03
  1.7614320e-02   4.0566604e-04
  2.4437571e-02   3.3757882e-03
 -2.1759586e-01   2.3132734e-04
  1.1003368e-01   5.2528610e-03
 -1.2766257e-04   7.1480717e-03
  2.6173919e-02   3.0040073e-03
  3.2026090e-02   6.6698012e-03
  2.2131461e-01   2.5182513e-03
 -3.7103135e-03   6.0064218e-04
 -1.2247702e+00   8.0119760e-04
 -3.3807635e-02   1.1240911e-03
  1.1580472e-02   2.1247379e-03
 -3.3099353e-02   8.4760245e-03
 -8.3700679e-02   4.5700064e-03
  9.4667301e-03   2.4224124e-03
  8.0082510e-03   7.8932015e-04
  2.8324388e-02   1.4294456e-03
  3.2297620e-01   5.5313362e-03
  1.0058512e-01   1.4065910e-02
  9.2942946e-02   1.7286497e-03
 -1.3166618e-01   6.2582345e-04
 -9.0117403e-04   1.1438135e-02
 -6.6350415e-02   1.1059957e-02
 -3.9195813e-02   5.7440540e-03
 -3.7157714e-02   5.9560868e-03
  8.3023533e-02   1.6537216e-03
 -2.5128426e-02   1.3147398e-03
  9.7478464e-02   5.7309051e-04
  5.2513178e-02   4.7519924e-03
  2.3590365e-02   1.8086218e-03
 -2.1796519e-02   8.8725379e-03
  8.4528131e-03   1.2884400e-02
 -1.4386353e-01   3.1214224e-03
 -7.6491527e-02   2.4735143e-03
  2.2570729e-02   1.1092934e-02
 -3.0447999e-02   6.4967438e-03
  5.9482049e-02   1.3112313e-03
 -1.0446022e-01   1.5717415e-03
 -9.1634002e-03   4.2633526e-03
  3.9219815e-02   4.5908190e-04
  3.0592743e-02   1.0428758e-03
 -1.4758257e-02   1.3128417e-02
  1.4500786e-02   1.1788346e-02
  3.2508314e-02   4.3738703e-04
 -4.9265642e-02   3.4685796e-03
 -2.8918110e-02   1.1625255e-03
 -5.8320127e-02   7.6821446e-04
  6.4198729e-03   1.0875292e-02
 -4.9422842e-02   3.0373675e-03
  1.4088480e-01   7.5163664e-03
  3.2664724e-02   1.4935612e-02
 -1.3740981e-02   7.9398807e-03
  5.0418790e-02   8.6613884e-03
 -1.5045486e-01   1.8379435e-02
 -2.5127791e-02   3.2783982e-03
  1.2860695e-02   2.5677469e-03
 -1.1171956e-01   1.2057946e-02
  3.4804568e-02   1.9981465e-03
  1.1579906e-01   8.7115046e-04
  2.8786120e-01   2.2026405e-03
 -5.1668275e-02   7.5196684e-04
 -3.4845665e-02   4.1122958e-03
 -2.6275508e-02   6.4808677e-04
 -4.0044092e-02   4.1316757e-03
  1.6269712e-02   6.9969636e-04
 -2.2876114e-01   8.8060740e-04
  9.7866632e-02   3.1335163e-03
 -1.5758375e-02   3.2422733e-03
 -1.4159968e-01   1.8231338e-03
  3.9359941e-03   9.8926714e-03
 -3.0528437e-02   7.9911565e-03
 -1.6442979e-02   4.5147515e-03
 -7.8861229e-02   1.0358387e-03
  5.2052159e-02   1.7154579e-03
  3.4897830e-02   2.0559311e-02
 -4.5578824e-03   5.5667819e-03
  2.1968707e-02   1.0313775e-02
  5.1878903e-02   1.2943217e-03
  5.2532520e-02   3.5880487e-03
 -1.1540476e-02   1.6128679e-04
  4.4630272e-03   2.0819260e-03
  1.7700424e-02   2.3766393e-03
  2.0536199e-02   7.8667782e-04
  7.9174479e-03   5.6984378e-03
  7.2131388e-02   1.2229854e-02
  1.1130321e-02   3.5550531e-03
 -5.2109122e-02   3.2355562e-03
  9.0528727e-02   1.8236106e-03
 -6.9031990e-03   4.8112231e-03
 -8.1502803e-02   1.2946946e-03
 -1.7220188e-02   3.3221303e-03
  9.2640622e-03   7.0034020e-04
 -2.8709607e-02   2.3213855e-03
 -1.2487450e-01   6.9585969e-03
  1.0991145e-02   4.4043823e-03
 -3.3677912e-03   9.5953140e-03
 -5.0265405e-02   4.4389428e-03
 -4.0138129e-02   7.8079528e-03
  1.0446472e-01   2.4032353e-03
  1.4576745e-02   2.2639283e-03
  3.9764389e-02   6.4317719e-03
  1.4075391e-01   1.9756008e-03
 -1.5245476e-01   4.5811120e-04
  2.8608665e-01   7.8699872e-04
 -2.4413388e-02   8.2591791e-03
  7.1809128e-02   7.5376290e-04
 -4.3787092e-02   6.5752584e-03
 -5.1196322e-02   1.7610610e-03
 -5.9090191e-01   1.8943293e-03
 -1.6891502e-02   1.5546539e-03
  1.5358740e-02   7.1311817e-03
 -4.6819072e-02   5.2722208e-03
  2.6459046e-02   7.5239589e-04
  5.0574644e-03   4.1168514e-03
 -1.3670349e-02   4.2368155e-03
  1.3611497e-01   3.3039432e-03
 -4.3840494e-02   3.7322645e-03
  1.9253686e-02   5.1615277e-04
  1.7648581e-02   4.5207450e-03
  6.2770575e-02   2.0848517e-03
 -1.7947291e-01   1.4893827e-03
 -2.4157794e-02   6.4534014e-03
 -1.7088483e-01   5.6266896e-03
  4.8737481e-02   9.0457704e-03
  6.9071591e-02   1.5585183e-02
  2.6693141e-02   1.4276408e-03
 -1.9380497e-02   2.5579663e-02
 -1.3403398e-02   9.9770864e-03
  1.5352440e-01   1.7346921e-04
  1.6577432e-02   4.9230811e-04
 -4.6283815e-02   1.4635340e-03
  2.3771752e-02   9.4293454e-04
  2.6866947e-03   1.0011988e-03
 -9.0844631e-03   4.6576182e-03
  3.1768242e-01   7.4215751e-04
  3.7825547e-02   6.8166018e-03
 -3.7305884e-02   1.9346880e-03
  3.7369892e-02   6.8515204e-03
 -6.4867415e-02   4.1644168e-03
 -2.9220438e-02   1.1937336e-02
  3.1030260e-02   3.8698984e-03
  1.9952005e-02   8.0243768e-03
  5.5790693e-02   2.9091306e-03
  1.9480323e-02   2.2452850e-04
  1.0157137e-01   1.5427247e-02
 -1.8515471e-02   4.4681220e-03
 -1.4181112e-02   2.8020849e-03
 -1.9829098e-02   3.5307548e-04
  8.4104821e-02   2.8213952e-03
 -1.3720332e-01   2.1980456e-03
 -3.4721263e-02   7.6352870e-03
  7.1816593e-02   1.2518287e-03
 -2.0456673e-01   6.1324812e-03
  1.7241728e-02   1.4325899e-02
  5.6693390e-02   8.1425784e-03
  1.3310232e-02   3.1205178e-03
  5.7378988e-05   2.5969162e-03
 -2.2566125e-02   5.7856035e-03
 -1.0579215e-01   1.5362762e-03
  8.5705565e-03   1.5412536e-02
  1.1376607e+00   1.5917738e-04
  7.8779638e-01   5.5704484e-05
  2.5682577e-01   2.3690889e-04
 -3.9256215e-01   2.0461813e-04
 -1.5156139e+00   2.9811668e-04
 -4.8151475e-01   9.4709121e-06
  6.8218070e-01   5.1892894e-05
  1.0203219e-02   1.9658878e-04
  1.3151743e+00   8.7908418e-05
 -1.0706747e+00   3.5580696e-04
  1.3922473e+00   4.9812731e-04
 -1.4951196e+00   1.9293638e-04
 -1.0961879e+00   1.4705595e-04
  1.1525769e-01   6.9983024e-04
  1.5449256e+00   2.8774195e-05
 -4.4835169e-02   2.1340512e-04
  1.3924155e+00   2.1763028e-04
 -1.5769938e+00   8.0187712e-04
 -2.6571538e+00   1.5104052e-03
  1.0414749e+00   2.4303609e-04
  7.0028067e-02   4.7655252e-04
 -1.1821439e+00   1.9452184e-04
  6.3939989e-01   3.9764590e-04
 -1.8130519e+00   1.4224421e-04
 -4.5099702e-02   1.5549207e-04
 -5.2888151e-02   7.4087654e-04
  8.4179819e-01   3.1627336e-04
  1.6341228e+00   1.1559259e-04
 -6.6346473e-01   6.7786197e-04
  1.6605142e+00   3.2275039e-04
  2.3868008e+00   1.7225650e-03
 -8.0421671e-02   3.1391234e-04
 -4.4130492e+00   4.2384130e-05
  1.4581543e-01   5.8126397e-04
  3.2405697e-03   2.1242881e-03
 -6.4649065e-03   3.6666900e-04
 -1.1806898e-01   3.4609577e-04
 -8.1213444e-02   3.4620246e-04
 -2.9778600e-02   1.3529239e-03
  9.1905601e-02   4.9727724e-04
 -1.2402385e-01   1.5579845e-03
  3.1105321e-02   8.9701900e-04
 -1.5012753e-01   2.1617492e-03
  3.0851925e-02   2.3374858e-03
  5.6325406e-02   3.6430273e-03
  2.2380833e-01   6.4207385e-03
 -1.8587387e-01   4.5498018e-03
 -1.1800992e-03   5.7948437e-03
  6.8691839e-03   1.7281661e-03
  3.6831794e-03   1.4347897e-03
 -1.4093118e-02   1.2753971e-03
  2.6320232e-02   2.2412261e-03
 -6.3075119e-01   2.1510990e-03
 -3.2306840e-03   5.0844962e-04
  1.6730251e-02   1.5533949e-03
  1.5045127e-02   3.3554438e-04
  7.9172209e-02   4.4052796e-03
  1.3310768e-02   4.5317030e-03
 -6.0637522e-02   2.5544146e-03
  3.1387720e-02   1.5502160e-03
  6.0115829e-02   1.3185968e-02
  1.5383608e-02   1.2599365e-03
 -3.4283671e-01   3.1143497e-03
 -2.8651792e-01   3.2695278e-03
  4.4323768e-02   7.4611451e-03
 -1.7906064e-02   3.9103199e-03
 -1.8397463e-02   4.0811859e-03
 -2.5397122e-02   6.3043507e-03
 -2.1329076e+00   1.7643637e-04
  7.0219135e-01   3.9348050e-04
  2.5502894e+00   1.2427881e-04
 -3.3656710e-01   6.7512336e-04
  1.3575682e-03   9.7267906e-04
 -7.5026953e-01   4.3780127e-04
  4.1993517e-01   7.8876055e-04
  2.7252166e+00   1.7629878e-03
 -5.6936246e-01   2.2005971e-04
 -1.6097264e-02   8.6505909e-04
 -2.7911362e-01   1.0466285e-04
  3.1654051e-01   1.1908635e-03
  2.3037536e-02   1.6031082e-03
  4.9011180e-01   9.6186396e-04
  2.0443959e+00   3.6984112e-04
 -1.6135114e+00   1.1240012e-04
  2.2058706e-01   2.8206301e-03
  5.0491554e-01   4.4364773e-04
  6.6984601e-02   1.0104640e-03
  1.9301893e+00   2.4756738e-03
 -4.5556882e-01   2.4810751e-04
 -1.5963735e-01   4.2621946e-04
 -5.8819008e-01   1.3227829e-03
  1.6592218e-01   1.9781524e-03
  2.4168322e+00   5.6618704e-03
 -2.5494752e+00   1.2568191e-03
  3.7487140e-01   1.5786043e-03
 -1.1545627e+00   2.4001102e-03
  1.3216859e-01   1.5944248e-03
  5.8293715e-02   4.1032513e-03
 -3.3255941e-01   7.6539223e-03
 -3.5185087e-03   1.1752289e-04
  4.1314899e-03   2.9832698e-04
 -1.1049619e+00   9.4107067e-04
  1.1954534e-01   2.2071181e-03
  5.6328862e-03   7.4530602e-03
  5.7464086e-02   2.2063967e-02
  7.0608012e-02   7.8917630e-03
 -3.2290950e-02   3.8840325e-04
  6.6021360e-03   3.0761224e-03
 -1.4678658e-02   4.1663880e-03
 -5.2841991e-02   5.9475889e-04
 -7.3896050e-02   2.3993457e-04
  1.0920118e-01   1.6321259e-02
  1.9082101e-04   7.2101592e-03
 -4.6351567e-02   2.6627267e-03
 -3.6236241e-02   1.6232824e-03
  1.9683002e-03   9.1372780e-04
 -2.2388355e-01   4.3677185e-03
  4.3707201e-05   1.0526112e-03
  5.1718038e-03   1.4133823e-02
 -5.0831303e-02   5.3330185e-03
  1.0614540e-01   4.9302578e-03
  1.2107820e-01   1.6958779e-04
 -1.7212127e-01   1.8979638e-03
 -1.0187483e-01   7.8557516e-03
  6.7082226e-02   3.9355014e-03
  2.6703622e-02   4.3805768e-03
  7.2226420e-02   2.9067080e-03
 -3.2902129e-02   5.6990962e-03
  3.4032635e-02   2.9193272e-03
 -1.5890900e-02   5.0067028e-04
 -3.5581712e-02   3.6012807e-03
 -1.1669612e-02   3.7164441e-03
 -3.4587127e-01   1.4441391e-03
 -2.1815775e-03   5.4032346e-03
  2.2001760e-02   3.6512408e-03
 -2.0775076e-02   6.6857738e-03
 -8.9332646e-01   4.2327898e-04
  3.6325845e-01   2.2587841e-03
  1.1290257e-01   5.3532358e-04
  4.0286798e-02   3.5141912e-04
 -1.8550284e-01   1.2777608e-03
  2.2812392e-01   1.1096243e-03
 -5.2933782e-01   1.0151671e-03
  3.0071316e-02   1.8640427e-03
 -1.4781670e-01   2.4295721e-04
  3.6034603e-02   9.3852570e-03
  2.3661474e-02   4.7958298e-03
 -1.4060109e-02   4.3518194e-03
  6.7155704e-02   5.1273624e-03
 -4.0899307e-02   6.8261619e-03
  7.5082228e-02   2.8935613e-03
  4.4981971e-02   4.5556389e-03
 -3.4589481e-02   1.0442751e-02
  6.2088072e-02   9.3048960e-03
 -5.5355705e-02   2.4210544e-02
 -2.0403498e-01   9.4994192e-04
 -4.3446161e-02   5.6391060e-03
 -2.1499412e-01   2.7500559e-03
  5.9933290e-02   5.5266959e-03
  1.7471934e-02   1.3823770e-03
 -1.1436690e-01   2.7784992e-03
 -7.9898350e-02   8.2037039e-03
  9.7152749e-03   2.2312687e-03
 -4.4476826e-02   5.9923851e-03
  1.5256378e-02   4.7907461e-03
  5.7540748e-02   1.3815118e-02
 -6.7752272e-02   7.4831662e-03
 -2.6529239e-02   8.4227677e-03
 -1.9349834e-02   4.1200565e-03
  7.4651830e-02   8.8445395e-03
 -1.0538903e-01   1.1059720e-03
  1.3755970e-02   3.8079545e-03
  5.9329420e-02   2.1419949e-03
 -4.0608915e-03   5.3350488e-03
  1.7288940e-02   9.8249264e-05
 -9.1102213e-02   7.7175698e-04
  6.9237374e-02   4.6714357e-04
  3.9384112e-02   3.3052568e-03
  3.9873037e-02   8.0353807e-04
 -6.8719365e-02   1.1771569e-02
  3.0627513e-02   5.9196027e-03
 -1.5471630e-01   1.1493866e-03
  1.6824558e-02   5.4030507e-03
  1.7863169e-02   2.5156466e-03
  2.2914916e-02   8.3794314e-03
 -9.4486931e-03   1.6142117e-03
 -1.2806721e-02   9.4344962e-04
  2.0153124e-02   7.3517808e-03
 -6.6423886e-02   7.1008536e-03
 -3.6038451e-02   1.2308504e-03
  1.8477472e-02   4.7554835e-03
 -6.8259411e-02   5.0104869e-04
 -8.8665463e-02   5.5988994e-03
  3.3631653e-02   4.5220248e-04
 -1.8127227e-02   2.1147658e-03
  3.4056798e-02   2.6500796e-03
 -3.1622734e-02   1.1030573e-03
 -5.6294747e-02   5.5313655e-03
  1.6658922e-01   1.3700986e-02
 -1.3018799e-01   2.5254174e-03
 -1.8678035e-03   7.4348710e-03
 -1.0460112e-02   4.8667258e-03
 -2.7175081e+00   3.6341804e-03
  9.3841173e-02   8.2607912e-03
 -3.6807418e-02   9.5603254e-04
  7.6217189e-02   1.6985701e-03
  6.1981980e-04   4.1424826e-04
  3.8095862e-03   3.7375730e-04
 -1.1423387e-01   1.9156814e-03
  3.2634601e-02   8.3182321e-04
 -9.6259944e-02   8.7484956e-04
  3.0319333e-01   4.5849732e-04
 -4.6295309e-03   1.6946420e-03
  1.1797013e-01   1.1942020e-03
  8.4406978e-01   5.5168441e-04
 -3.5671748e-03   4.0653013e-03
  2.6558412e-02   2.1381450e-03
 -1.9440204e-02   2.6294512e-03
 -8.8361748e-02   1.1739107e-03
  2.5767662e-02   5.1302608e-04
 -2.1803938e-01   1.0402839e-02
  1.1360531e-02   2.7975710e-03
 -1.2835799e-01   1.4076253e-03
 -1.9020432e-01   6.1763218e-04
 -6.7731999e-02   7.8735041e-04
  1.8160222e-01   1.9984602e-03
 -8.4941499e-02   4.8578200e-03
 -2.3610675e-01   3.0472418e-03
 -1.7334461e-02   1.7102662e-03
 -1.5071322e-01   1.6264671e-04
 -7.2246097e-02   1.0924327e-02
  6.6963159e-03   6.1900920e-04
 -7.1337804e-02   1.8223144e-04
 -1.7225781e-02   1.6805953e-03
 -1.4036823e-02   7.3511736e-04
 -4.0983083e-05   8.6574284e-03
 -2.4864356e-01   8.4119826e-04
 -4.6089046e-02   2.9047905e-03
 -2.1801436e+00   2.4073860e-03
  1.3043761e-01   1.7432400e-03
 -1.4555186e-01   1.0904649e-04
  3.6490396e-01   1.5975145e-03
  8.4211208e-02   3.6814137e-04
  2.3471072e-01   1.1550542e-03
 -3.2393244e-01   6.0332379e-05
  2.7971518e-01   3.5757196e-04
  1.8086920e+00   6.5625017e-04
  1.8673138e-01   2.3623488e-03
 -2.9107866e-01   1.0422347e-03
  1.7918994e-01   8.1464183e-03
 -1.5642866e-01   1.0541114e-03
 -2.7102347e-02   1.0591726e-03
  4.6711257e-03   9.7927439e-04
  4.6345767e-02   8.1263465e-04
  1.5267074e-01   5.3199581e-03
  2.4506332e-01   2.6116271e-03
  2.4544530e-01   6.2735924e-03
  4.6518141e-01   1.8958887e-04
  1.2591617e-01   1.4303074e-03
 -6.1099201e-01   1.4419984e-03
 -5.9317546e-03   4.8767938e-03
  2.2399161e+00   1.3309240e-04
 -5.2218247e-02   1.9147496e-03
  1.8942109e-01   3.6319559e-03
 -6.1160494e-02   3.7347516e-03
 -8.2841471e-02   2.6135857e-03
 -2.7160742e-03   1.0861040e-02
  1.3263202e-01   1.0124031e-03
  1.6076792e-02   2.1099220e-03
 -1.1761257e-01   5.1647765e-03
 -1.2594050e-01   4.7699423e-03
 -5.2299753e-02   6.5165516e-03
 -2.7778722e-02   7.4893457e-04
 -2.6652375e-03   5.8060099e-04
 -4.4185594e-02   9.7185199e-04
  2.5306231e-01   6.5692113e-04
 -1.5806623e-02   1.1373208e-03
 -8.9719668e-02   4.6707443e-03
 -2.8363496e-02   8.8922818e-05
  3.8648385e-01   5.7749555e-04
  1.4047891e-02   2.0597496e-03
  6.8970352e-02   5.7879521e-04
  7.7610351e-02   5.4084966e-03
  7.6905876e-02   1.3863625e-02
  2.1682113e-02   2.4484575e-03
  1.8065747e-02   3.0068485e-03
 -1.5809029e-02   9.0869665e-03
  4.8696594e-03   2.1569794e-03
  5.8626387e-02   4.8477904e-04
 -2.8936059e-04   2.2416352e-03
  2.6147789e-01   2.9011315e-04
  8.9478962e-02   2.9418992e-03
  3.9754040e-03   7.0028850e-03
  9.8709464e-03   3.2873007e-03
  2.3603242e-02   4.2431313e-04
  6.8592653e-02   3.2945226e-03
  4.4107847e-03   4.6761781e-03
  4.3340191e-02   2.1069779e-03
  9.6671559e-02   1.1188953e-02
 -4.3422554e-02   4.2315554e-03
 -1.0007223e-02   1.4373304e-03
 -3.0470733e-02   2.1039003e-03
 -1.1612306e-01   2.4884241e-03
 -1.0726291e-03   2.5828280e-03
  3.3602469e-02   3.5029051e-03
 -2.7928941e-02   1.7812114e-03
  1.0936617e-02   3.1672546e-03
 -3.6874060e-02   4.4654151e-03
 -1.3233637e-02   1.0016692e-03
 -2.4558372e+00   4.1503765e-04
  8.6542681e-02   2.2584375e-03
  8.9930147e-02   1.9929298e-04
 -1.0978846e-01   8.4266525e-05
 -1.6540760e-02   3.7797246e-04
 -3.8684979e-02   2.8447816e-03
  6.8833731e-02   1.5751987e-03
  1.6911685e-01   2.6128448e-03
  5.0516337e-02   3.7647572e-03
  4.0535394e-02   8.0361189e-03
 -2.2615671e-02   4.0090312e-03
  5.3660519e-02   2.7516370e-03
  1.6411910e-02   3.4151997e-03
 -2.4205759e-01   8.3929684e-04
  5.7026561e-02   2.2935986e-03
 -1.0283543e-01   1.6494744e-02
  1.1746665e-02   8.7433116e-04
  1.6871436e-02   1.9722383e-03
 -2.5580296e-02   1.2082200e-03
  5.0688494e-02   1.8026269e-04
  1.6683403e-02   6.0902035e-04
 -2.6397057e-02   7.1259617e-04
 -2.0571154e-02   6.3739979e-04
  9.8410780e-03   1.3516572e-03
  7.1612045e-02   1.8866948e-03
  9.8123755e-03   2.4865873e-03
 -1.3982199e-01   1.0894065e-02
 -4.1512739e-02   9.3953758e-03
  3.0977204e-02   8.0675473e-03
 -2.7371770e-02   1.4232994e-02
  1.0690819e-02   2.3750926e-03
  1.5840464e+00   2.6243785e-04
 -4.1472583e-04   8.9981346e-05
 -2.4113491e-01   8.6013031e-05
  3.1784903e-02   5.0228270e-04
 -1.3695440e+00   1.2853806e-04
  2.0019227e-01   1.9847753e-03
  4.1093457e-01   5.5324676e-04
  3.7467085e-02   1.2094569e-03
  1.0664028e+00   7.0248370e-04
 -2.5925735e-01   1.8124591e-03
 -2.5032216e-03   6.9870177e-04
 -1.0012086e-02   8.1343070e-04
 -6.9722340e-02   2.5054496e-03
  1.2542221e-01   2.0882247e-03
  8.7218033e-03   1.5179914e-03
  2.4636637e-01   1.2088224e-03
 -2.2058728e-01   7.5842519e-03
 -1.6918674e-02   1.6214517e-04
  6.6024184e-02   2.9716678e-03
  3.5689317e-02   4.8327961e-04
 -1.3535693e-01   1.5827572e-03
 -1.5275648e-01   1.4334567e-03
  6.7999989e-02   2.3881993e-03
  2.7050400e-01   1.4408738e-03
  3.7642914e-01   6.1584258e-04
 -1.8292974e-01   1.5520327e-03
 -2.8531597e+00   2.5784213e-03
  1.4650826e-01   2.5804024e-04
 -1.0793630e-01   2.1343683e-03
  4.5589082e-02   6.4709256e-03
  1.5737656e-01   1.3216140e-03
 -6.3214214e-03   3.6636069e-03
  7.2390467e-05   4.2817878e-04
 -2.7122921e-01   1.7060830e-03
  8.6592323e-01   1.1918253e-04
 -4.9163206e-03   1.5996194e-04
  7.4023843e-01   8.3876716e-05
  1.6118547e+00   1.0154072e-04
 -9.6725207e-03   5.9805007e-04
 -6.9892341e-01   3.2200973e-04
  3.2524508e-01   5.7548727e-04
  8.8979965e-01   6.5271975e-05
  2.9819067e+00   3.8099842e-04
 -2.1947798e-01   4.7670759e-04
 -9.8079836e-01   8.0981926e-04
  3.5992143e-01   1.9805995e-04
  8.4182411e-01   3.7421772e-04
  2.0522687e+00   1.6903275e-03
  3.1574315e-01   4.6940133e-04
 -1.9416626e-01   2.3865565e-03
  5.4168785e-01   8.4758684e-04
 -1.2530594e+00   1.3952847e-03
 -1.0258701e+00   1.4442540e-03
 -1.1948586e+00   1.3374811e-04
  5.0798976e-01   3.1552464e-04
 -1.2569497e+00   2.2453378e-04
 -5.3796262e-01   1.4806355e-04
 -1.8600806e+00   8.5400691e-04
 -5.7006502e-01   1.9643322e-04
 -8.0618453e-01   1.1408146e-04
 -6.3522911e-01   2.2480883e-04
  4.9301036e-02   6.2355178e-04
  3.6859232e-01   7.8296475e-04
  1.0874373e+00   2.0705795e-04
  1.5022415e-01   3.9884336e-03
  7.8870468e-03   1.1381067e-03
  5.0348867e-02   1.3077450e-02
 -3.9206377e-01   1.6174336e-03
 -1.2049644e-01   9.0181868e-04
  3.5365853e-02   2.6341570e-03
  4.9011455e+00   2.4653948e-04
 -5.1317066e-02   4.0539000e-03
  9.1607034e-02   7.7755103e-04
 -8.3502762e-02   9.9017436e-04
 -1.2518943e-02   6.3743413e-04
  2.9349204e-02   3.1315875e-03
 -4.4358730e-02   1.3287932e-03
  1.1393861e-01   6.0401013e-04
  3.5178505e-02   1.4973863e-03
 -6.0846679e-02   2.8754766e-03
  2.0719642e-02   1.2567166e-04
  3.7088633e-02   9.9295611e-04
  3.7300168e-04   3.9382209e-03
 -1.4693721e-01   2.9640708e-03
 -1.8747361e-02   2.8243009e-03
 -2.1775806e-01   1.1674558e-03
 -8.9294463e-03   1.4591828e-03
 -1.3044243e-02   6.4277498e-04
  1.0047037e-01   3.7051453e-03
  5.8359760e-03   5.5361884e-03
 -7.2014868e-02   2.0017207e-03
 -2.6730534e-02   5.1158895e-03
  1.2928623e-01   1.6611103e-03
  2.0028394e-01   2.2992191e-03
 -1.0662191e-01   2.3166095e-03
  1.0446409e+00   2.1579841e-03
  1.4768246e-02   4.2220359e-03
 -9.4700336e-02   3.5523348e-03
 -9.7942278e-02   7.2667422e-03
  2.1780185e-02   1.1234543e-02
 -5.2585706e-02   7.2760074e-03
 -3.4045603e-02   1.7731042e-03
  1.0707564e+00   1.9974632e-03
  4.5961574e-01   2.4595547e-02
  1.0115149e+00   2.9406007e-04
 -1.2598969e+00   1.1494966e-04
 -3.1620648e-02   3.5902089e-05
  7.1708935e-01   3.1618477e-04
 -1.1111565e+00   4.3874857e-04
  5.2832228e-01   6.9828689e-05
 -4.1230726e-01   7.5405529e-05
 -4.1306514e-01   8.2269765e-04
  2.7043128e-01   3.3847126e-04
 -1.3397182e+00   9.6073770e-04
 -3.8681483e-01   4.5034560e-04
 -1.6092204e+00   1.0655844e-04
  2.2382169e+00   1.4071821e-03
  3.6565464e-02   1.0951466e-03
 -8.1516623e-01   2.4378668e-03
 -1.3627989e+00   7.0598180e-04
 -1.8277521e+00   1.7361915e-03
  2.4551644e+00   1.0654565e-04
  1.4651364e+00   4.7114646e-04
 -1.1538361e+00   1.2403637e-03
 -2.0522044e+00   2.6058031e-03
 -2.5949137e+00   9.9512064e-05
  8.4365666e-01   5.5140216e-04
 -8.7346709e-01   7.0191898e-05
 -1.2056781e+00   4.6420578e-04
  3.9210889e-01   2.5625308e-03
  2.9456225e-01   1.0544616e-03
  6.6297549e-01   2.2574777e-03
  3.5993531e-01   2.0844357e-03
  1.0597816e+00   4.4598896e-03
 -2.1892048e-01   6.4699403e-03
 -2.0170726e-02   1.6780818e-03
 -1.1247043e-01   2.9645770e-04
  2.1177277e-01   6.1046341e-03
 -9.4557041e-03   1.7533294e-03
  1.4399722e-01   1.9493648e-03
 -1.8571520e-01   4.8948982e-04
  2.7364082e+00   4.1664016e-04
  7.3575206e-02   2.3157275e-03
  7.8932159e-02   1.8533298e-03
 -4.0807047e-01   3.5688467e-04
 -2.8670102e-01   5.1938957e-03
 -1.3377921e-01   4.8827997e-04
  1.3157782e-01   1.2965549e-03
  2.9643185e-02   5.6121050e-04
  2.6674833e-02   2.8201744e-03
  2.6211290e+00   2.9826660e-05
 -8.5896412e-03   5.0266711e-03
  2.9650969e-02   2.2458704e-03
 -2.7496850e-02   2.5392347e-03
 -1.8936420e-02   4.1905944e-03
 -1.3660364e+00   8.7239541e-04
 -1.1983380e+00   6.8694551e-04
 -1.3013183e-01   2.4756992e-03
 -6.1855773e-03   6.1765774e-03
 -6.6780947e-02   8.9185266e-04
  3.0516896e-02   3.4258026e-03
 -1.2360793e-01   9.6935434e-03
  1.8891238e-01   2.2434350e-04
  4.6380159e-02   7.9692109e-03
  7.1414160e-03   4.0806415e-03
  3.1618416e-02   5.1215687e-03
 -2.2598557e-01   3.2264248e-03
  1.0608444e-02   4.4280859e-03
 -4.9772065e-02   1.6831730e-02
  1.1134733e-01   1.4455329e-02
  3.2801831e-01   6.8290619e-04
  3.3848074e-01   2.2767027e-04
 -1.9315533e-01   5.8446696e-04
 -1.7176305e-01   7.7404547e-05
 -6.6513795e-01   3.7127954e-04
  6.6157895e-01   1.0245724e-03
 -9.9312562e-01   5.1174193e-05
  4.0700459e-01   6.4599357e-04
 -6.5322123e-02   1.8192691e-04
  5.5323207e-01   4.0189139e-04
 -6.2874682e-02   1.2862089e-03
 -8.8589448e-01   2.9363387e-04
 -5.5556994e-02   1.5212373e-04
 -3.5252887e-01   6.9220021e-04
  2.9864338e-01   2.6355233e-04
  1.2999326e+00   1.0330536e-03
 -3.3257574e-02   6.3395686e-04
  2.8035721e-01   2.8421499e-03
  1.8680534e-01   3.9017708e-03
 -3.6338189e-01   6.2542083e-04
 -9.5101759e-02   7.2625735e-05
 -4.5046031e-01   9.6817227e-04
 -3.6232151e-02   5.3076812e-05
  1.0976118e+00   1.0530931e-03
  1.0466569e-01   5.8432360e-04
  4.2191321e-01   8.9134934e-04
 -4.3282807e-01   1.3811196e-03
 -1.4120566e+00   1.5884732e-03
  1.6811211e-03   1.1676948e-03
  3.5261001e-02   4.5021408e-04
  1.6975323e-02   5.6301348e-04
 -5.4169837e-03   2.9093621e-03
 -7.7391946e-01   1.2207300e-03
  1.0929862e-01   1.2907086e-02
 -3.2851028e-01   6.0395402e-04
  1.8569468e-02   1.1575280e-03
 -6.1535020e-03   4.6885200e-04
 -4.1683204e-04   1.1073271e-03
 -1.7191238e+00   1.6790695e-04
  8.7978905e-01   6.9910915e-05
  1.0325459e+00   1.3103851e-03
  2.8861389e+00   1.7555193e-04
  7.4220663e-01   1.3525397e-04
 -1.5332381e-02   6.0212176e-05
  7.2641551e-02   2.5685321e-04
 -1.1430398e-03   3.0445380e-03
 -1.7462286e-01   6.9531257e-04
  1.3770871e+00   7.0078589e-05
  9.1603267e-01   4.6996481e-04
 -7.3630944e-02   2.9614542e-03
  8.4920123e-02   1.8320749e-04
 -4.9350876e-01   1.2906286e-04
  6.3431919e-01   4.2707929e-03
 -8.8990368e-03   1.0573157e-04
 -3.8170323e-01   1.0472306e-03
 -9.0389095e-02   4.5492328e-03
 -9.5643200e-02   2.1253733e-03
  4.8009282e-01   1.2761457e-03
 -5.3823553e-02   1.1588549e-03
 -1.3208537e+00   3.9176596e-04
 -1.0521578e-01   4.1049388e-03
 -6.8162359e-02   2.6525799e-03
 -1.4417128e-02   2.4024553e-04
 -7.7160829e-01   2.2280335e-03
 -1.6252321e-01   9.4974395e-03
 -7.9329088e-02   3.7139975e-03
  5.0472283e-01   1.9369925e-03
  1.4632044e-02   3.0394166e-03
  2.0940526e-01   2.9613945e-04
  6.8231322e-02   6.0400990e-04
  2.4117370e-01   1.4645845e-04
  1.7357044e+00   5.5280782e-04
  1.1917689e+00   1.7583878e-05
  1.7524145e+00   2.2571602e-04
 -1.0256528e+00   1.8396969e-04
  3.0119192e-02   1.2381500e-04
 -7.5893068e-01   4.6132853e-05
  1.7897344e+00   9.6031732e-04
  2.1811461e+00   4.3011675e-04
  1.6103863e+00   1.3559330e-03
  2.4207334e-01   2.3650697e-04
  5.3699309e-01   4.4844169e-04
  1.2108190e+00   1.8035562e-04
 -1.1113486e+00   3.5181432e-04
  4.4186497e+00   1.0889176e-03
 -1.2047548e-02   1.7543768e-03
 -3.3124527e-01   5.4510526e-04
 -1.5142168e+00   4.8656625e-04
 -6.1746246e-01   1.0114333e-03
  9.2272121e-01   2.5868462e-04
 -2.1608658e+00   7.4063335e-04
  1.2580400e+00   3.7554619e-04
 -7.2667557e-01   1.3215844e-04
 -1.0729142e+00   6.2357512e-04
  3.6936098e-01   6.0659734e-04
 -1.9653068e+00   2.7958231e-04
  9.0136987e-01   2.6493010e-04
 -5.0689574e-02   3.4887457e-04
  1.3550961e-01   2.7718176e-03
  3.7001425e-01   4.2919465e-03
  4.5496425e-01   5.9052644e-04
 -2.2131244e-02   7.3482613e-03
  1.1433288e-01   9.7270607e-04
 -4.0287967e-03   2.0870995e-03
  6.2088734e-01   1.1701022e-03
 -1.1164825e-01   2.5617087e-03
 -9.9765107e-02   1.9004322e-03
 -5.4353639e-02   2.8339606e-03
 -4.8713148e-02   6.3433894e-05
  2.7613935e-01   2.9046423e-05
 -1.4567262e+00   4.0217562e-04
 -1.9925857e+00   5.9629953e-04
  2.1028757e-02   4.4982447e-03
  5.0241244e-03   4.6793213e-03
 -4.7918321e-03   3.4829909e-03
  1.6705416e-01   1.3600698e-03
 -2.4556355e-01   2.2008912e-04
 -3.3065672e-03   8.4273680e-04
 -4.0887721e-02   2.6868011e-03
 -8.7956399e-02   1.1460255e-03
  5.8057547e-02   8.0294069e-03
  6.8636680e-01   7.5251877e-04
  1.0226022e-01   1.0662926e-03
  1.0688219e-02   4.0565263e-03
 -4.8084289e-02   3.0352478e-03
  7.3093462e-01   4.9798493e-04
 -6.8955615e-02   7.0272374e-04
 -4.7422221e-01   5.8185747e-03
  1.8474003e-02   3.4365805e-03
 -3.0293730e-01   3.0538440e-03
 -1.1513383e-01   1.6498194e-03
  1.6294183e-02   9.6532404e-03
  1.1435217e-01   1.1042001e-03
 -2.4151221e-02   3.3124774e-03
 -5.4295417e-02   3.8786454e-03
 -1.3590332e-02   7.2922134e-03
 -2.5532880e-01   2.1115097e-04
 -5.4778153e-01   2.1661434e-04
  1.0467422e+00   5.4793567e-05
  1.4075737e+00   1.0253811e-04
 -1.8740388e+00   4.8433518e-04
  2.0539153e+00   6.1720016e-04
 -4.9268314e-01   2.1239671e-04
  9.7673255e-01   3.6483510e-05
 -1.2103844e+00   1.3902674e-05
  1.8863857e+00   7.0777058e-04
 -1.4038268e+00   1.1032581e-03
  5.0937557e-01   4.5007039e-04
  1.1935095e+00   1.3573507e-04
  6.0413980e-01   4.3637953e-03
  2.4760532e+00   6.4154156e-04
  8.7481573e-02   2.3764200e-03
 -7.8920192e-01   7.5643946e-04
  9.7210437e-01   3.7662414e-04
  3.7364058e+00   3.4876607e-04