 -2.0523825e-01   2.2104359e-04
  2.3878806e+00   9.2997587e-05
 -7.6190370e-01   2.8889575e-05
 -1.6380315e+00   1.8042891e-06
  7.9327330e-02   2.4160803e-05
 -8.8540190e-01   2.8264924e-04
  5.3114665e-01   8.1023223e-05
  5.1710159e-01   3.9922705e-04
  3.5636597e+00   1.7491358e-05
 -3.7797540e-01   2.2642229e-04
  9.5025885e-01   6.2873449e-05
  4.5312086e-01   1.6002653e-03
  7.7113754e-01   8.3793921e-04
  6.4506638e-01   7.5824501e-05
 -8.2536095e-01   6.9255220e-06
  3.6541474e-01   3.2379236e-07
  3.4753191e-01   7.0974644e-04
  2.9139078e-01   8.7727904e-06
 -1.3454300e+00   4.1947115e-04
 -1.5385143e-01   2.4499348e-05
 -2.0891304e-01   2.3214343e-05
 -1.3208978e+00   2.0303757e-07
  4.5731881e-01   5.4273867e-05
  8.3865784e-02   1.1729688e-04
 -1.2845887e-01   7.3402275e-06
 -1.6555051e+00   1.1616052e-05
 -2.1618169e-02   4.4333711e-04
  1.4481285e-02   1.7264374e-03
  1.3811977e+00   3.8350963e-06
 -3.9583441e-02   9.0515488e-07
  7.5169723e-03   1.6198040e-07
 -1.6844317e-01   5.9493724e-03
  3.0841157e-01   2.5089350e-04
 -2.4105299e-01   7.4335097e-05
  3.4628432e-02   2.1423025e-04
  5.6705303e-02   2.4214330e-08
  7.9354548e-01   4.5886059e-06
  1.1611340e-01   5.9790989e-05
 -1.1623985e+00   5.3426821e-04
  1.1748715e-01   6.7142135e-04
 -2.6291534e-01   1.3295326e-05
  3.7471741e-02   2.8337393e-04
  1.6489170e+00   7.1876886e-05
 -3.1547897e-02   6.1765830e-05
 -6.3025095e-02   5.0443859e-04
 -3.4063095e-01   7.7494242e-06
 -9.2226183e-01   2.1522668e-05
 -9.6354447e-02   4.2959091e-05
  8.6951834e-01   6.0293311e-04
  4.3866835e-03   5.6121535e-06
  2.8756058e-01   7.2897127e-04
  1.6755995e-01   8.5866114e-04
 -4.3008780e-01   4.4271615e-05
 -1.1145087e+00   2.1343812e-05
  1.8451210e-02   2.1367853e-04
 -2.2515608e-01   3.6297337e-04
  1.6824543e-01   2.6777196e-08
 -7.5148523e-02   4.9444960e-05
  1.5032202e-01   3.7189079e-06
 -6.3465186e-03   5.8216112e-05
 -5.4431248e-02   9.1221667e-04
 -8.3543658e-01   4.2351639e-05
 -2.0174353e+00   2.3620685e-03
 -4.6149421e-02   9.2848233e-05
 -1.3456292e+00   5.2732321e-07
  8.1790400e-01   2.0959691e-04
 -6.5611893e-01   6.4655605e-06
 -8.0782278e-03   3.3853629e-09
 -1.0933552e+00   1.0366062e-06
 -1.9014484e+00   3.4406228e-05
 -6.9650292e-01   1.5256094e-05
  1.2534720e+00   3.2005279e-04
 -1.1562177e+00   8.0325972e-06
 -3.0961913e-01   4.3889481e-04
 -1.2301499e-01   1.9419081e-06
  1.3791651e+00   1.4714813e-03
  1.4355590e+00   4.3836556e-04
 -3.6682373e-01   8.9363290e-05
 -3.7521191e-02   9.2783548e-06
 -9.5999610e-01   1.7000227e-07
 -1.4361701e-02   2.4686003e-04
  2.0257752e+00   1.0216352e-06
 -8.1839639e-01   5.9629924e-04
 -2.9102977e-02   3.6182894e-06
 -1.6513066e+00   2.0166847e-04
 -4.8146456e-02   2.9479563e-06
 -8.3765990e-01   2.0289230e-05
 -1.2721707e+00   1.1347558e-06
  1.8037483e+00   3.6095307e-04
 -6.6171092e-01   3.4304050e-04
  1.4554075e+00   5.7780417e-04
 -4.9881939e-02   9.9165179e-04
 -1.3420444e+00   6.3912053e-06
  2.1484317e-02   7.7448115e-03
  9.8399383e-01   1.1884462e-05
  9.1017120e-02   6.1399245e-05
  2.7520778e-02   2.6441386e-04
  3.2687459e-02   3.8976883e-04
 -2.0595329e-02   2.2186959e-04
  5.2202493e-02   1.1121906e-05
  1.2261023e-01   1.4380975e-04
 -1.3018076e-03   2.1105493e-06
  3.3463515e-02   8.1330327e-08
  4.6430960e-02   5.7126735e-03
 -7.2952442e-02   2.1999987e-05
  1.6797975e-02   3.2088879e-05
  4.6886909e-03   7.8519348e-05
  3.1465244e-02   2.3856026e-04
  1.2831271e-01   1.1250425e-04
  4.3437075e-02   1.1090213e-04
 -3.0027365e-03   1.1535170e-03
  3.4290195e-02   7.4066292e-04
  8.6750695e-03   4.4699886e-05
  2.3425151e-02   5.5554387e-04
  2.3144359e-02   4.2369251e-05
  2.2853311e-02   2.4012825e-03
  4.1552614e-03   7.3011506e-07
 -1.2994259e-02   2.5317993e-04
  1.2724408e-02   2.1511412e-03
  3.2081395e-02   1.7781521e-04
 -2.9070114e-03   3.7173895e-04
 -4.7269086e-03   5.1489135e-04
 -2.7651861e-03   1.6873575e-05
 -2.6128944e-03   7.7983917e-04
  1.6058270e-02   3.7462700e-03
 -5.5249032e-02   2.2815168e-05
 -3.2707080e-02   1.0531332e-04
 -5.8266986e-03   1.0192660e-03
  7.9216342e-03   5.5502728e-06
  1.7568784e-02   4.4817323e-04
  7.9087205e-03   1.5387857e-04
  3.2541931e-01   3.3983652e-06
  6.4042740e-02   1.5363032e-04
 -1.8455423e-01   9.8672967e-07
  5.7674393e-02   4.2652435e-04
  3.5228480e-03   2.5205369e-04
 -3.8614020e-01   4.9890250e-08
  6.3799662e-03   6.4061300e-05
 -4.5528065e-02   3.3052874e-04
  3.2965429e-02   7.1602997e-05
  7.8379296e-02   3.9548706e-04
  6.5236613e-03   1.9401778e-05
  2.9778998e-02   4.7461708e-07
  3.8475520e-04   1.3996387e-06
  8.1249669e-02   3.9528855e-05
  9.0162031e-02   2.0841497e-04
  2.7990922e-02   4.0648556e-05
 -2.1393734e-01   1.8396092e-03
 -5.6643311e-02   1.5120575e-06
 -5.5599086e-02   1.5245799e-06
  1.9781005e-02   2.3542671e-03
  3.6243256e-03   1.7665097e-06
  1.9178651e-02   6.3631828e-06
 -4.8801512e-01   1.9760899e-08
  1.2173315e-01   3.1464795e-05
 -1.5042983e-02   2.2569380e-04
 -2.5935167e-02   2.7080252e-05
 -2.5001319e-02   6.9713406e-04
 -5.8326535e-02   2.2868349e-05
 -1.4813700e-01   5.1403480e-05
 -1.8986894e+00   5.0123499e-06
  2.4122956e+00   1.9972714e-07
 -3.3287707e-01   4.7873979e-04
  7.6827282e-01   1.1143626e-04
 -8.4084862e-01   2.7268375e-06
 -3.9312667e-01   1.1538668e-03
  1.3304883e+00   1.0612452e-05
 -1.0172487e+00   6.2992744e-04
  7.6176125e-01   2.0303351e-06
  4.8573363e-01   1.5221910e-05
 -1.4206616e+00   3.0871208e-05
  1.2056100e-03   2.7066353e-04
 -1.7277377e-02   7.4169235e-05
  3.9275638e-03   2.5743173e-05
 -4.1444796e-01   1.8836331e-04
 -4.4676572e-01   1.5245720e-05
 -7.0694178e-02   6.7060196e-04
  2.1941924e+00   3.7110207e-05
  5.1721383e-02   8.4083587e-07
 -2.1889923e-02   2.4326349e-05
  3.0138403e-02   5.6452363e-06
 -2.6286313e-01   6.7244553e-05
  1.0447761e+00   1.0459014e-05
 -7.2072889e-03   7.9276745e-04
 -1.1606752e+00   1.6806442e-04
  4.4228289e-02   1.4965409e-04
  8.3827429e-02   4.2040751e-06
 -1.8176552e-02   2.3008354e-06
  1.1729070e+00   2.3768871e-05
  1.0393815e-01   9.8277573e-03
 -4.3958199e-01   5.5054852e-06
  5.2799098e-03   8.0876629e-04
  8.5462844e-03   4.1102973e-04
  4.4331811e-02   3.8879709e-05
 -7.0989355e-02   2.7976839e-05
  8.0897993e-01   4.5019641e-04
  1.6035695e-02   5.3562660e-05
  1.9117199e-02   7.0089525e-05
  1.0049275e-02   5.5280110e-05
 -2.3831112e-02   3.4143685e-03
  8.5777059e-02   6.3907128e-06
 -6.6376179e-02   3.0182535e-05
 -5.4404736e-02   1.3736020e-04
  1.6367452e-02   1.3003042e-05
  1.1543903e-02   1.7290065e-05
 -5.6227714e-02   7.1489550e-05
 -5.2048434e-02   1.5022627e-04
 -1.7241783e-03   1.6122679e-03
 -2.6352324e-02   5.3632241e-03
 -2.2074133e-03   8.9371955e-04
  4.4958945e-03   2.2821894e-04
 -2.3595678e-02   3.1588057e-05
 -4.0226537e-03   3.5688933e-04
  2.4693729e-02   1.0209223e-03
 -2.6020700e-02   1.6105181e-04
 -6.8491668e-04   4.3379396e-04
 -8.3681485e-03   3.2286398e-04
 -1.4883401e-02   1.0264538e-03
  4.8553277e-02   5.1036669e-04
  4.5731813e-02   1.4481005e-03
  6.7412436e-02   5.2694297e-05
 -6.6208187e-03   1.4596581e-04
 -1.3313493e-02   1.6863041e-05
 -2.0765706e-03   1.2869084e-04
 -2.0451202e+00   1.8734492e-05
 -5.3911912e-01   2.3083826e-06
  1.5365779e+00   3.7361890e-06
 -1.2367743e+00   5.2065930e-06
 -1.1893779e+00   6.9626831e-06
 -1.3120903e+00   1.6179847e-05
 -8.1959182e-01   1.1052325e-04
  2.0587119e-01   1.7035911e-04
  1.6152111e+00   8.3237515e-05
 -6.5737888e-02   6.9621374e-06
 -1.0128580e+00   1.6378468e-03
 -2.9335897e+00   4.5521901e-04
  3.0452142e-02   6.5402535e-04
  1.2266891e-01   2.8183998e-04
 -4.5174521e-01   1.9498306e-04
 -3.8636398e-01   2.9986357e-05
 -3.2355344e+00   2.9695104e-03
  1.6019182e+00   1.1489900e-04
 -1.6126286e+00   1.8499539e-07
 -1.1172491e+00   4.4582039e-04
  4.4747576e-01   2.5440713e-05
 -2.4018373e+00   2.6013568e-05
 -1.4513144e-01   7.2910705e-05
 -5.7696044e-01   8.5858926e-05
 -1.9277819e+00   7.7812814e-08
 -6.1326560e-02   1.2783609e-04
 -1.7758574e+00   1.6805276e-05
 -3.1147905e-02   9.1499614e-04
  3.4760155e-02   5.1938414e-06
  4.5912225e-02   2.1014206e-05
  1.6760793e+00   2.6205022e-04
  1.0964237e+00   7.6921924e-04
 -5.9618070e-03   1.0914795e-04
 -1.9526932e-02   4.2325674e-04
  7.8614298e-03   6.8092725e-04
 -1.5651502e-02   9.9996326e-04
  1.1140930e-03   1.1823315e-04
 -6.7296238e-03   1.5965604e-06
  1.5663814e-02   1.6246580e-05
  1.0959327e-02   8.3380844e-04
 -2.1766282e-03   2.2045440e-04
  2.7334984e-02   5.1081453e-05
 -5.9877712e-02   7.2398070e-05
 -4.9811155e-02   3.6129768e-03
 -5.9508164e-03   2.8180261e-03
 -4.4171747e-02   1.7671049e-05
 -1.2554979e-01   4.4247256e-05
  4.0119059e-02   3.7190833e-04
  5.9083786e-02   7.0544644e-05
  2.3496313e-02   6.0036458e-04
 -2.2634515e-03   2.8401990e-03
 -1.8468438e-02   9.1394744e-05
  1.1644328e-01   7.7414268e-05
  5.3025655e-02   1.2520540e-05
  4.6714052e-04   4.1985745e-06
  2.7954448e-03   1.7399946e-03
 -8.5374586e-02   1.5947425e-03
 -4.2828701e-02   2.9645327e-03
  1.8227412e-01   8.5780793e-04
  2.4037261e-02   2.3239276e-03
 -2.1892311e-03   2.4225590e-06
  4.1813902e-03   1.9265653e-03
 -3.2954816e-02   2.1397305e-04
  5.7078484e-03   4.1339514e-03
 -1.0019861e-02   6.2876701e-05
 -7.7651427e-03   2.4848513e-03
  5.9135012e-02   8.7845801e-05
  4.3912325e-02   1.8802645e-04
 -6.7861402e-01   4.0671439e-05
  1.0344128e-02   2.3594389e-03
 -4.3897316e-02   4.1668949e-04
  1.2500862e-02   9.1461811e-07
 -2.0700110e-02   8.5193187e-04
 -2.7416004e-02   2.9318917e-03
  1.9205676e-02   4.8087067e-03
  1.8671019e-02   6.0758534e-06
 -4.1539628e-02   7.5454367e-03
 -7.9850014e-03   3.6801893e-04
 -4.7503904e-02   8.1149456e-06
 -1.0927056e-02   3.0117255e-04
  9.2440005e-03   4.5447671e-03
  9.1030831e-03   2.4115492e-03
  1.7153801e-02   1.1670221e-04
  9.3878517e-03   4.0182541e-03
  2.4653787e-02   2.9362393e-05
  4.9038455e-02   1.6796062e-06
 -1.5260075e-02   2.5312792e-07
 -1.6713388e-02   4.8104846e-03
 -4.4680055e-02   6.4952187e-03
  2.7967047e-02   2.1170599e-04
  4.3670874e-02   1.4453097e-03
 -1.7405752e-02   1.7414835e-03
 -5.3189717e-02   4.1900171e-04
 -1.4564092e-02   1.3591042e-04
  1.0297539e-02   2.1306102e-08
 -2.6288046e-02   3.5203435e-03
  6.5534398e-02   1.5306578e-07
 -3.6530703e-01   1.0245331e-05
 -6.5597758e-02   1.2983513e-06
 -4.4213891e-01   8.3193292e-05
  3.6377159e-01   7.3576750e-08
 -4.1603190e-01   2.2687364e-04
 -6.5960214e-02   1.2718087e-04
 -8.0153733e-01   1.5837600e-04
  5.7598524e-02   5.7208832e-05
 -1.0835490e-02   4.9969378e-05
  4.2311549e-03   6.1168853e-06
  1.0251727e-01   8.6276408e-04
 -3.6767578e-01   8.3832233e-04
 -1.3060236e-02   1.4124311e-07
 -1.7874660e-02   1.0390275e-04
  3.1717420e-01   4.9923445e-05
 -9.0700656e-02   2.5730235e-06
 -2.3014662e-01   4.3871551e-05
  1.6753152e-02   2.1830166e-04
  5.8650494e-01   1.4665737e-04
 -5.9656358e-01   2.2507593e-04
 -1.7004060e-02   7.5425873e-05
 -1.1031839e-02   3.5601809e-06
 -2.5596300e-01   3.5981873e-05
  6.9752134e-02   2.8112790e-04
 -2.4788834e-02   2.0028710e-05
 -8.2893297e-02   2.9777299e-04
 -4.3076180e-02   5.3502263e-06
 -8.3312588e-03   1.2822599e-04
 -1.4672350e-02   9.8210480e-04
  3.5499409e-02   5.2484981e-04
  9.6236713e-02   1.8116387e-05
  9.8735076e-01   5.9635389e-05
 -6.7148656e-01   7.8746001e-05
  1.2926360e+00   6.6817287e-05
 -3.5088295e-01   3.7568418e-07
 -1.7302465e-01   2.4032495e-04
  1.1236918e+00   2.6277191e-04
  3.2772031e-01   5.5076909e-04
  1.7681935e-01   1.5500904e-04
 -1.5687680e-01   2.0628884e-06
 -7.2853470e-01   4.6869821e-04
  5.9950596e-01   5.3523723e-07
  1.0493577e+00   1.0479674e-05
  2.7235234e+00   1.3753508e-03
 -9.2155866e-02   1.4859835e-06
 -3.7627798e-02   1.0379722e-04
 -2.8635168e-01   1.8041037e-05
  9.5359421e-01   1.4295279e-04
  1.8653016e+00   1.9274544e-06
  1.8656554e+00   1.9901199e-05
  4.1333213e-01   2.4738229e-06
 -8.9942962e-01   4.3371506e-06
  5.4522949e-01   5.9207478e-06
  6.1707228e-01   2.9076715e-05
  1.2771293e+00   2.5731173e-05
  9.1535069e-02   1.5285341e-05
 -1.9321029e-01   3.7873906e-06
  2.5196517e-01   2.4240375e-05
  2.1392295e-02   2.0532380e-03
  1.2785655e-01   8.0737777e-07
  3.1953055e-02   7.9425539e-05
 -3.8434398e-01   4.0421059e-05
 -3.2199606e-01   4.8274592e-07
 -6.6137516e-01   3.6903177e-07
 -8.2602185e-01   1.9127810e-06
  4.6553212e-01   4.7801128e-05
 -7.1788445e-02   8.8475808e-06
  5.0952905e-01   3.6096542e-05
 -9.6645856e-01   4.5996331e-04
 -1.1394016e-02   9.8317673e-07
  1.0362197e-01   3.1407617e-05
 -1.1541450e+00   2.5328225e-04
 -4.4348426e-02   1.3788126e-05
  1.4172970e-01   8.8056503e-04
  3.2807061e-01   1.5384542e-04
  7.5251776e-01   9.9695666e-05
  7.9648024e-01   2.8079896e-06
 -9.4878562e-02   1.3905010e-04
  1.1455671e+00   7.5827370e-06
  6.4159065e-01   3.8114091e-04
 -7.7996790e-01   1.7106111e-04
  1.9189091e-01   8.5492451e-07
  1.3944414e+00   1.8909317e-05
  6.5334696e-01   3.7146234e-05
  2.2287188e-01   1.6689009e-05
  2.5288084e-01   8.3179341e-04
  2.9006156e-01   1.1867131e-05
  2.0901532e-01   1.0725909e-06
 -1.3259571e+00   1.3508068e-06
  7.7136743e-01   6.9205841e-04
 -3.3621784e-02   7.2859916e-06
  3.0285302e-01   1.0950290e-06
  6.1266094e-01   4.5821836e-04
 -7.6911521e-01   1.7661154e-05
 -2.9135779e-03   4.4247307e-05
  7.5257607e-03   2.3218703e-07
  1.6967483e-02   1.7773228e-02
  2.3398289e-02   1.0037403e-04
 -3.4228344e-03   4.5275227e-03
 -1.2846590e-02   1.8652151e-03
 -7.0480159e-03   1.0632344e-03
 -1.0461794e-02   3.4898381e-05
  1.3548321e-02   1.0657107e-03
 -5.8659803e-02   3.2729204e-04
  2.7884133e-03   6.7682308e-04
  4.4800952e-05   2.5715507e-04
 -3.4247597e-03   1.7014115e-04
 -2.0535707e-02   1.2678262e-03
  1.4501967e-02   8.4215641e-04
 -1.4626135e-03   2.4602408e-04
  1.0969790e-02   4.2383098e-03
 -5.8614193e-03   6.9876120e-04
 -2.1623701e-03   2.5914276e-05
  6.1459072e-02   7.1667768e-05
  9.8815933e-02   4.0023759e-05
 -3.2988717e-03   3.0811061e-04
 -2.2547584e-02   1.6213740e-05
  8.0803176e-03   3.8974284e-04
 -5.0461695e-02   9.5425360e-03
  6.6001285e-03   1.1808551e-03
  5.1622622e-02   1.4935954e-03
  6.7578651e-02   8.7117043e-04
  2.2987476e-02   5.0588320e-03
  7.1768783e-02   2.2145403e-03
 -1.0982441e-02   1.3520935e-04
  6.2909983e-03   1.8146718e-03
  7.1222316e-03   2.8340952e-05
 -8.8890910e-02   3.6860052e-05
  1.3856356e+00   1.2430324e-08
  7.7341306e-01   2.7474182e-04
  1.1990876e-01   2.6138643e-05
  1.0576368e-01   1.3583413e-06
  1.4774790e+00   5.0586859e-05
  1.8081151e+00   1.0712457e-05
  4.0108252e-01   9.6237411e-05
  6.7555940e-01   1.7152466e-05
  8.5679543e-01   2.2053298e-04
 -6.3893121e-01   1.2432025e-07
  6.7365752e-03   1.0071170e-04
  1.2442354e+00   3.0922136e-04
  4.0668330e-01   4.2480574e-06
  1.7453593e+00   1.0002407e-03
 -9.3008369e-01   8.0550541e-05
  7.1441740e-02   4.1053968e-04
  5.0683343e-01   2.4911336e-04
  1.6926625e-01   2.9134166e-05
  8.5298836e-01   2.1579237e-06
 -3.3851019e-01   4.3590955e-04
  1.8278797e-01   8.0103155e-06
  5.1500612e-01   4.8701386e-06
  7.5508094e-01   2.4926386e-08
  2.1892358e-01   4.5240697e-05
 -3.7633400e-02   1.3117612e-08
 -3.8694760e-01   7.0624163e-05
  7.0147631e-03   2.7971184e-06
 -2.1907727e-01   1.7386919e-04
  3.3752244e-02   3.5660274e-04
  1.9921525e+00   2.0432248e-05
 -8.7540597e-03   7.8586146e-04
 -2.3519197e+00   3.5157929e-05
 -2.9864404e+00   7.5216172e-05
 -2.3850422e+00   4.0429832e-06
  1.3736852e+00   1.0527304e-04
  9.6547061e-01   3.6058366e-06
 -1.3165973e+00   3.8106214e-07
  5.2482376e+00   3.6657052e-06
  5.5355889e-01   1.3606162e-05
 -6.2823214e-02   8.5037536e-05
  3.2913000e-03   2.2227856e-05
  8.5820401e-01   1.8020973e-08
 -1.9458680e-01   2.6847326e-04
 -2.2853968e-01   7.7962466e-07
 -2.5970042e-01   1.2176675e-05
 -2.3459941e-01   2.2740682e-07
  7.1360052e-01   3.2269803e-04
 -8.2731104e-01   5.7471625e-05
 -3.6931086e-01   2.4542307e-05
  2.5305793e-01   2.0204042e-04
  5.3512436e-01   2.3634866e-05
 -1.6172702e+00   1.1778816e-05
  1.1051427e+00   1.3685851e-06
  6.8362010e-01   2.7377426e-04
 -4.0247776e-02   2.8028686e-05
 -1.8622642e-02   7.2365016e-05
 -1.3893120e-01   1.1540508e-05
 -1.2693745e+00   1.3195656e-09
  8.5650245e-04   1.0126103e-04
  2.1461470e-01   5.4320029e-08
 -1.9406319e-02   3.9839164e-05
  1.0016745e+00   1.2413680e-05
  2.6187120e-02   2.0759487e-06
 -1.0217730e-01   4.8348029e-05
 -1.8547042e-03   1.3650076e-04
 -5.0657757e-02   2.5054612e-04
  1.5858686e-01   2.3162541e-04
 -1.8792078e-01   2.7871304e-06
 -3.7865636e-01   5.2141986e-04
  4.0527758e-01   6.8181580e-05
  8.8379472e-01   5.6704797e-04
  1.2739129e+00   3.6163439e-04
  4.3358989e-02   5.8488645e-06
  9.0540713e-01   7.3519217e-08
  7.0451707e-01   1.4487439e-04
 -1.7672349e-02   4.6872834e-04
 -1.8909046e-02   5.5211817e-04
 -1.0081937e+00   1.8328759e-04
  7.6899564e-01   2.4424256e-05
 -2.5325267e-02   4.6152436e-05
 -6.8852946e-02   1.3743163e-04
 -1.1471497e-03   1.9466053e-05
  2.6914451e-01   3.4115286e-04
 -6.5713480e-02   2.6720412e-05
  4.0767834e-01   2.1250808e-04
  1.1130826e+00   3.5574905e-07
  2.6823547e-01   3.1771835e-06
  2.3619804e-01   7.1077178e-05
 -2.7973771e-01   1.6058378e-07
  2.2205897e-01   9.7765023e-06
  5.1626945e-03   1.7934379e-05
  2.5728708e-03   7.6708320e-04
 -7.5191356e-02   1.8372111e-03
 -1.6176067e-01   3.0775342e-04
  2.7944533e-02   2.6040513e-03
 -8.2125310e-03   5.4836295e-07
  2.3330477e-01   1.0703168e-06
 -2.1503607e-03   1.2114166e-03
  1.0555583e-04   1.1496394e-05
 -9.5638437e-03   9.4003435e-06
  1.9483116e-02   6.0017593e-04
  1.8044768e-02   2.8950602e-03
 -2.9851273e-02   5.3184976e-05
  1.0350654e-02   4.3129749e-05
 -6.2517505e-03   5.6797022e-04
  1.9394635e-03   1.2526960e-03
  1.6257323e-02   1.0198812e-05
 -2.0291377e-03   4.4036706e-04
 -1.6873921e-01   8.6847704e-04
  8.9026935e-02   1.3927993e-03
 -6.9031931e-02   1.8315422e-05
 -1.5980586e-03   1.8197546e-03
 -1.5713723e-02   8.3813820e-06
  1.3395867e-02   5.8025407e-06
  2.3484657e-02   1.5600317e-04
 -9.8261945e-03   1.4904770e-03
 -2.5952006e-02   3.9712635e-05
 -2.7636429e-03   2.8676621e-04
 -5.0745338e-02   2.5563589e-03
  7.4555807e-02   4.1859857e-05
 -4.8243385e-02   3.0313890e-05
  4.8196563e-01   2.5731642e-05
 -2.3773524e-03   4.6577377e-04
 -6.3215876e-03   2.8229371e-04
 -1.1624160e-02   2.0661852e-03
  4.4373576e-02   1.2682836e-03
  5.2014110e-03   4.3470976e-05
 -2.5899556e+00   3.6749331e-04
  3.7593776e-01   9.1736462e-07
  1.7813887e-01   1.6988568e-05
 -1.0094832e-01   1.1426281e-04
 -1.5285136e+00   6.7541814e-06
  2.1642612e-01   4.8658922e-06
  2.5841653e-01   1.8869743e-05
  4.9050465e-01   1.9787101e-03
  1.0791468e-01   4.7769328e-07
  1.0768907e-01   1.5557812e-04
  1.0490759e-01   3.3699820e-04
 -1.7234598e-01   5.4123119e-04
 -4.2701492e-01   6.6100605e-05
 -7.9068434e-01   3.7424904e-04
 -1.1230654e+00   1.8941420e-05
 -1.3893939e+00   3.0718226e-04
 -7.1774673e-01   2.0562318e-05
 -1.4228011e+00   1.8631884e-04
  1.4061131e-01   1.0057967e-05
 -6.6500717e-01   2.4578974e-05
  6.4802086e-01   1.4764360e-05
  3.3234712e-01   5.6024699e-04
 -2.1516294e+00   3.5412385e-04
 -1.1251958e-01   2.6251926e-05
 -1.0629287e+00   1.6075205e-04
  5.5017799e-01   8.7721521e-05
 -3.5628021e+00   4.0393043e-05
 -1.2005690e-02   2.6158496e-05
  2.1256188e-01   9.1311762e-05
 -5.1779207e-03   1.2740074e-03
  2.5390306e-01   3.6152700e-04
  1.4311863e-01   3.4851029e-05
 -1.0809395e+00   3.1635611e-07
  2.6527196e-01   1.2111547e-05
 -6.5629852e-01   3.3499420e-04
 -1.5060516e-01   2.4224141e-06
 -6.6748247e-03   6.5223762e-04
 -3.0642503e-01   8.0580332e-07
 -2.3579587e-01   4.3541399e-06
 -1.0163836e-01   3.1036303e-05
  1.8757688e-01   6.0420443e-05
  6.4518480e-03   2.8771904e-04
 -8.4674120e-02   5.0914219e-05
 -3.7693992e-02   1.4388077e-04
 -8.6912289e-02   1.1006790e-05
  6.0363326e-02   4.0085964e-05
  3.4160390e-02   4.3398913e-04
  1.0429230e-02   3.3830912e-07
  2.0017931e-02   1.2368170e-03
  8.1027842e-01   2.6752663e-05
  4.4467673e-01   2.1119988e-06
  4.1324057e-02   3.8871393e-04
  4.5227301e-01   9.0296186e-07
  3.8994774e-01   4.7250739e-07
  1.7402051e-02   2.4125999e-05
  6.2930977e-01   1.6218599e-05
  3.3939999e-02   7.8130171e-05
 -6.8183251e-02   2.4999439e-08
  7.0883506e-03   8.1885526e-05
 -6.6541368e-03   3.0152842e-03
 -1.0253239e-01   8.8960637e-04
 -1.2045441e-02   2.9825764e-05
 -2.4455750e-01   7.9938258e-07
  9.6758059e-04   3.5438003e-05
 -7.7744281e-01   1.2002656e-04
  7.4268304e-02   7.0059049e-04
  3.2191418e-02   5.1723426e-05
 -9.7572505e-03   3.9195284e-04
  1.5384495e-02   9.3322276e-04
  4.8472069e-02   6.7350547e-06
 -3.0933535e-02   5.7444839e-07
  7.7065468e-02   3.3831268e-04
  2.5305130e-02   1.6579502e-06
  4.2621072e-02   5.6200381e-05
 -1.5197001e-02   2.6868028e-03
  1.1027240e-02   1.4451403e-03
 -2.4166016e-02   1.1839390e-03
 -1.0657875e-02   3.2210203e-03
 -1.5483950e-02   1.4071957e-04
 -2.2545274e-02   1.0966305e-03
  1.4329283e-02   9.9691027e-04
 -1.9274021e-03   4.7004866e-04
  2.4466075e-02   3.0732946e-05
 -5.7212673e-02   2.5213399e-06
 -9.1012670e-03   3.7114949e-06
 -4.3958977e-02   2.5108238e-04
  1.0036955e-02   1.0942189e-04
 -2.3165615e-02   7.4175921e-05
 -6.1493345e-02   3.5118039e-03
 -2.4913396e-01   8.5026702e-05
 -3.4163412e-02   2.0003979e-06
 -4.0934989e-03   8.3324366e-04
  5.9744748e-03   2.7257670e-03
  4.0137875e-03   1.8371038e-06
 -1.1676356e-01   2.2436681e-03
 -7.9350416e-03   2.1060225e-07
  1.5785883e-01   3.4324552e-05
  7.6320279e-01   1.7660190e-04
  3.4459759e-03   3.2928941e-04
  7.4310249e-01   1.0962978e-05
  1.0870740e+00   1.9269110e-06
 -2.6198983e-01   1.3288719e-06
  1.4582874e-02   1.6864852e-04
  1.0435431e-03   2.3435347e-03
  2.9371339e-01   9.6711392e-07
  1.7047300e-03   2.4839997e-05
  1.1614450e-01   8.2265865e-04
 -8.3097052e-03   2.2068482e-03
  8.3748132e-02   8.8822754e-04
 -8.6001769e-02   5.0614335e-06
  1.2306439e-01   1.0130472e-04
 -1.0243665e-01   1.5197666e-06
  3.2963596e-02   7.8178709e-04
  4.7247219e-01   1.3237054e-03
 -3.9870866e-02   4.9153192e-04
 -1.4908505e-02   4.1027609e-04
  1.0377244e+00   7.1280636e-05
 -9.3960890e-04   2.6868048e-04
  5.0673878e-01   5.7524833e-04
 -1.3744654e-01   9.2248301e-06
  9.3558887e-03   6.1101589e-04
 -2.1018272e-03   9.1324640e-05
  3.8172293e-02   8.3101774e-04
  1.2755232e-02   2.6339320e-03
 -9.1673873e-02   1.1077053e-03
 -4.0284405e-03   4.7234218e-03
 -5.4269373e-02   4.1721418e-07
  2.0628281e-02   9.4719947e-04
  3.4595840e-02   1.2451085e-03
  3.1424966e-02   3.0975367e-04
  4.1424379e-02   2.9105153e-03
  1.3442467e+00   1.1369067e-03
  7.9035657e-03   3.2429986e-03
 -7.7594854e-02   3.4593791e-04
 -3.8254727e-02   5.5195804e-04
  1.4215991e-02   6.6461362e-06
 -6.2524632e-04   1.7953472e-03
  4.0128350e-02   8.1381155e-04
 -2.2174917e-02   4.1863393e-07
 -2.9030288e-02   3.9211661e-03
 -3.7487911e-03   3.7581910e-04
 -4.0238029e-03   2.4508502e-04
  1.6821867e-02   1.0503114e-05
  2.5406478e-02   1.1415923e-03
  2.2948734e-03   1.6604965e-05
  2.8820897e-02   7.9341780e-04
  7.9664961e-02   2.8112195e-06
  2.5745833e-02   8.9950580e-04
 -1.3275016e-02   4.7580069e-03
 -6.5426761e-04   2.6512223e-06
 -5.6880310e-02   3.0871740e-04
 -7.8516807e-03   1.0688642e-04
  7.2979346e-02   2.0353661e-03
 -3.8426828e-02   3.0699060e-03
 -3.4776546e-02   2.8201602e-03
 -2.3835275e-02   1.0767093e-04
  2.3847725e-02   5.2050652e-04
  5.2718883e-03   7.8362469e-03
  3.1080328e-02   1.0776301e-03
 -1.6504928e-02   8.5003854e-04
 -1.1905202e+00   1.6537066e-06
  5.9495229e-01   5.3283761e-06
 -3.0263180e-01   8.5103631e-05
  1.6524754e+00   2.9750850e-05
  8.1301010e-01   2.2287636e-04
 -7.9805022e-01   2.6092974e-05
 -2.8770080e+00   8.0167383e-06
  8.1030095e-01   7.6331533e-05
  1.2210744e-01   1.3929131e-05
  8.0352217e-01   3.3218760e-06
 -3.8684180e-01   1.0724339e-06
 -1.3311938e+00   6.6473782e-05
  4.1967326e-01   4.6462454e-05
  1.1925535e+00   9.2754315e-05
  1.2348152e-01   5.3873501e-04
  2.5374985e-01   5.5375032e-05
 -4.5571819e-01   3.2366166e-04
 -6.8636768e-02   2.2920436e-05
  1.2286140e+00   8.7619665e-06
 -1.6897051e-01   9.8084034e-05
 -1.1497518e+00   2.5596742e-06
 -4.5412198e-01   9.7556673e-05
  6.2649399e-02   1.7380930e-04
  1.2523451e-02   6.0902832e-05
 -2.4098319e-01   1.3423369e-04
  2.2461203e-01   4.1368676e-04
  5.0598860e-01   1.2726136e-04
  2.1844356e-01   1.7896417e-03
  3.4749258e-01   7.3281910e-05
  1.1964452e-01   9.6588656e-06
 -3.9505698e-02   1.4850678e-04
  9.4359919e-02   6.6480408e-03
  9.5899659e-01   2.4415279e-04
  1.5586761e-01   1.5961219e-06
 -5.2798979e-02   3.4813482e-05
  2.2708206e-01   8.0896527e-05
 -9.9580967e-01   3.0354591e-04
  1.4093456e-01   2.3403952e-06
  1.3126099e-01   5.7543084e-06
  7.9147071e-03   2.4997341e-04
 -9.9438816e-02   2.0229369e-05
 -7.9779230e-02   4.8786336e-05
  5.0917310e-01   5.4227171e-04
 -2.0179492e-01   1.0503236e-04
  2.9230914e-03   1.9569859e-04
 -5.3200251e-01   4.7667436e-05
 -6.6665083e-02   7.5409349e-05
 -7.5939471e-01   2.7388294e-04
  1.9378843e-02   5.4797274e-04
 -3.4939934e-02   3.4986153e-06
 -6.3363001e-02   5.5199725e-06
 -1.2341361e+00   9.0450245e-05
  4.0514573e-01   1.2092961e-04
  1.7337844e-01   4.3251121e-06
  6.1114490e-01   6.1381370e-04
 -5.0744575e-01   7.8481629e-05
 -2.0405973e-01   8.8497967e-05
 -6.0119522e-01   1.4212991e-04
 -7.9724841e-02   2.3714626e-04
 -1.8337319e-02   1.3901024e-05
  4.6221703e-02   5.8959075e-04
  5.5063283e-04   1.2390863e-03
 -8.3881669e-02   4.3903372e-05
  4.2273267e-03   1.6865331e-05
  8.1638895e-02   2.3548771e-03
 -1.7611949e-02   2.2056689e-04
 -3.8670424e-02   1.3353563e-03
  8.4276214e-02   3.9364962e-04
 -2.1913558e-02   4.1787844e-04
 -1.0583886e-02   2.7217572e-03
 -1.0105941e-02   8.2698047e-05
  1.3399040e-02   1.0466106e-05
 -6.2597521e-02   4.2850376e-04
 -1.3520777e-02   8.4545412e-05
 -3.8675526e-03   5.0706829e-05
  3.9148428e-03   4.9854079e-05
 -5.4209050e-02   1.0328300e-02
 -2.0810034e-02   3.6318500e-03
 -2.5530251e-02   1.9061948e-04
  3.1044425e-02   1.0826217e-03
  1.4061471e-02   3.7228758e-04
  8.7998584e-03   1.1073813e-05
  1.2269699e-02   1.0611117e-05
  1.1353184e-02   1.1739595e-03
 -1.2014164e-02   5.4377084e-05
 -2.7608223e-02   3.5848969e-03
 -2.0188160e-02   2.5135021e-05
  1.6029727e-02   7.7656414e-03
 -1.2513848e-02   5.7970658e-05
  1.4792873e-02   3.9353427e-03
 -2.5955301e-02   6.1860228e-06
  8.7868253e-04   2.9975802e-04
  1.1527533e-02   1.6138172e-03
  4.0141515e-02   2.5279665e-05
  2.4343019e-02   8.2387043e-05
  3.1210551e-02   1.3931455e-03
  1.1254882e+00   2.8555339e-06
  1.5244724e-01   5.1282046e-07
 -1.1071537e+00   1.0185781e-04
  1.0601754e+00   4.2250522e-05
  1.0396304e+00   8.2206803e-05
 -2.2171741e+00   2.9779971e-04
  8.4707046e-01   1.4406991e-04
  2.3435166e-02   2.6456028e-04
 -3.7854072e-01   4.7157628e-05
  5.2232212e-01   3.0491481e-04
  2.0892367e-02   1.9341194e-06
  5.1639806e-02   1.1976395e-03
  3.8967635e-02   7.0888636e-05
 -9.7636767e-02   6.7140347e-05
  9.4586231e-02   6.4453739e-06
 -1.9063903e-02   9.2926689e-07
  6.3211478e-02   2.8577069e-04
 -2.1415010e-02   2.2121614e-03
  2.8927001e-01   7.2187577e-05
  3.1213896e-02   3.9837591e-04
  1.2911526e-03   9.5646268e-05
 -4.2444974e-01   7.1101723e-04
 -2.7234057e-02   2.0365626e-06
  1.2411566e-02   4.0057141e-04
  1.4311868e+00   2.0941692e-05
  3.3803031e-01   6.7806276e-08
 -1.5426612e-01   1.7345896e-05
  1.5264878e-02   3.0213068e-04
 -3.7881041e-01   4.0189872e-05
 -2.7260767e-02   3.0496747e-03
  1.3185321e-01   1.6094052e-06
  1.3215080e-01   1.6329933e-03
  2.5761656e-02   1.7107977e-05
  4.5892112e-02   5.0867606e-05
  3.5973664e-02   8.9253840e-04
 -1.8571274e-02   1.7359569e-04
 -1.6849668e-01   1.1723727e-03
 -8.8030674e-02   8.1917860e-05
  1.9121006e-02   4.2466404e-06
 -1.4212049e-03   7.6344621e-04
 -9.6002677e-03   3.1913878e-04
 -4.2740244e-02   9.1169735e-05
  4.7192974e-03   1.4832956e-04
  2.5127051e-02   3.1797872e-03
  3.6555618e-02   4.5464822e-04
  1.3487993e-01   2.0752694e-04
 -1.4426305e-02   8.4805160e-06
  1.7911058e-02   5.0685139e-06
  1.0289734e-02   7.7526625e-09
  1.8030237e-02   2.8963854e-08
 -1.5361112e-02   5.2078271e-06
  1.0916724e-02   1.9735415e-05
  7.4669525e-02   1.0779287e-04
  1.0025359e-01   1.7996237e-05
 -3.4204253e-03   6.6760542e-05
 -1.8747628e-02   1.2550441e-03
  1.2087537e-01   3.5253892e-04
  2.0523249e-01   8.8962151e-06
  5.4708030e-03   2.7788879e-05
  6.2758210e-03   4.9694453e-04
  8.3214331e-01   2.9513732e-05
  2.3087164e-02   9.3057179e-06
  5.0887227e-02   1.6415001e-05
  2.3106106e-03   3.5144083e-05
  2.8347101e-02   1.2641888e-04
 -3.3302784e-03   2.1988802e-05
  5.8497293e-03   2.4681439e-04
 -9.2201466e-03   3.8844513e-04
  1.9447858e-02   2.1555999e-05
 -4.1891737e-03   1.6162152e-05
  1.4597420e-02   2.5452281e-04
 -9.1949506e-03   2.0697149e-03
 -6.3576587e-03   1.2548788e-05
  1.1587353e-02   2.3565586e-03
 -5.2934974e-03   2.2855926e-04
 -5.5145454e-02   1.1958472e-03
 -2.7080011e-03   7.9096493e-04
 -2.1507544e-02   3.3346743e-05
  2.0169355e-01   2.4750936e-05
  1.5586254e-02   7.2290230e-04
 -2.5667913e-02   5.2127457e-04
 -7.7897646e-03   4.2862893e-04
 -6.9374643e-02   1.4960622e-04
 -2.0182924e-03   8.4343792e-06
 -9.5646739e-02   1.7381500e-03
 -1.0568194e-02   3.4162679e-04
  9.3501816e-03   5.8771687e-04
 -5.5486243e-02   4.2322327e-04
 -2.2574188e-03   6.3702707e-08
 -5.7443804e-03   8.9026248e-04
 -1.1012138e-02   1.3534754e-03
  1.8964219e-04   5.5991830e-03
 -7.5491593e-04   1.5488366e-05
  2.3097074e-02   4.3918531e-05
  1.7003438e-02   2.0951135e-03
 -1.3071653e-02   6.1674313e-05
 -9.8899398e-03   4.6085703e-04
 -4.6765157e-03   9.6850609e-04
  6.2561296e-02   1.3228580e-03
  2.8089883e-02   7.2666473e-04
 -2.2578700e-02   6.2619234e-05
 -5.7558291e-02   9.1094997e-05
  1.0286028e-01   4.5887413e-04
  4.0916849e-02   1.2757358e-04
  2.5925459e-03   7.1929404e-05